<?xml version="1.0"?>
<VTKFile type="StructuredGrid" version="0.1" byte_order="LittleEndian">
  <StructuredGrid WholeExtent="0 32 0 32 0 1">
    <Piece Extent="0 32 0 32 0 1">
      <PointData>
      </PointData>
      <CellData>
        <DataArray Name="rho" NumberOfComponents="1" type="Float32" format="ascii">
1 1 1 1 1 1 1 1 1 1 1 1 1 1 1 1 1 1 1 1 1 1 1 1 1 1 1 1 1 1 1 1 1 1 1 1 1 1 1 1 1 1 1 1 1 1 1 1 1 1 1 1 1 1 1 1 1 1 1 1 1 1 1 1 1 1 1 1 1 1 1 1 1 1 1 1 1 1 1 1 1 1 1 1 1 1 1 1 1 1 1 1 1 1 1 1 1 1 1 1 1 1 1 1 1 1 1 1 1 1 1 1 1 1 1 1 1 1 1 1 1 1 1 1 1 1 1 1 1 1 1 1 1 1 1 1 1 1 1 1 1 1 1 1 1 1 1 1 1 1 1 1 1 1 1 1 1 1 1 1 1 1 1 1 1 1 1 1 1 1 1 1 1 1 1 1 1 1 1 1 1 1 1 1 1 1 1 1 1 1 1 1 1 1 1 1 1 1 1 1 1 1 1 1 1 1 1 1 1 1 1 1 1 1 1 1 1 1 1 1 1 1 1 1 1 1 1 1 1 1 1 1 1 1 1 1 1 1 1 1 1 1 1 1 1 1 1 1 1 1 1 1 1 1 1 1 1 1 1 1 1 1 1 1 1 1 1 1 1 1 1 1 1 1 1 1 1 1 1 1 1 1 1 1 1 1 1 1 1 1 1 1 1 1 1 1 1 1 1 1 1 1 1 1 1 1 1 1 1 1 1 1 1 1 1 1 1 1 1 1 1 1 1 1 1 1 1 1 1 1 1 1 1 1 1 1 1 1 1 1 1 1 1 1 1 1 1 1 1 1 1 1 1 1 1 1 1 1 1 0.99937590263032283211 0.99999587048573057579 1 1 1 1 1 1 1 1 1 1 1 1 1 1 1 1 1 1 1 1 1 1 1 1 1 1 1 1 1 0.99736711009820111506 0.98362368479875383898 0.9952113311292423159 0.99999140906183103805 1 1 0.9999459940167766403 0.99999009585319409421 1 1 1 1 1 1 1 1 1 1 0.99999528612541999095 0.99979778150052645014 0.99952995469497196712 0.99936853809552339545 0.99930492118180958006 0.99903390268210423564 0.99837501188069222025 0.99898497854003787122 0.99561375514668382092 0.99704637680135665967 0.99762339136345468127 0.99774107032386982752 0.99928124958613484541 0.99660651230543406687 0.95509019345604206919 0.84125933573441236124 0.91468202666704778725 0.98966480152391411718 0.99995397744365033255 0.99717248473423214516 0.99284439969185911412 0.99392455387116684928 0.99510855454003499521 0.99494381805548981479 0.99467235891465521913 0.99453104501278799532 0.99440227738633069077 0.99426621887054023041 0.99411441212674644952 0.99393088295467635351 0.99371499918976136101 0.99346745604683028841 0.99274114700118853971 0.98893998564920637673 0.98393691431165009043 0.98069136128193690194 0.97880862046420813449 0.97302730903867229451 0.96316295253536021725 0.97160463748206604695 0.90826534624302224241 0.93234132184198392768 0.9446741560657279102 0.95079140708109599611 0.97578779227176304367 0.96810668941620692252 0.79020255090097868411 0.39365709766727069452 0.53073570484649434942 0.87459311635169445509 0.98056575191832129335 0.94129757416805992509 0.87233556129250455768 0.87635727037112354232 0.89323603349022229203 0.89181762823763610637 0.88683246877103838468 0.88377099280657878122 0.8811559659479482054 0.87841788095479800269 0.87534979767837506337 0.87167794990783797893 0.86737580666293589982 0.86234951060944464718 0.85383877871858793185 0.83383854524442124756 0.80962324010211561554 0.79287528870672352443 0.78070365938075647616 0.75116282801868206054 0.71171780716319466009 0.7417723020170532422 0.43459222930795948781 0.53992779212502439723 0.60550977145136086754 0.6496691208345584112 0.77918976513735738187 0.93205751838803041487 0.88178954214662375044 0.44751464193922640966 0.23058402422466883763 0.55569338742383023177 0.8029617879531406599 0.65534061638166263286 0.31124904986149298791 0.27789805985033239066 0.33889213089800535039 0.33733825294543579032 0.31447385550897449802 0.29814027861138431286 0.28452285544514294147 0.27045684337343445236 0.25467593039831071255 0.2359387246486502332 0.21410463103460455891 0.1900756362636893404 0.16664368848565622172 0.15207796533985021292 0.14528292030506595456 0.14194136128193685087 0.14005862046420808342 0.13427730903867229895 0.12441295253536027721 0.13285463748206627344 0.070547139144419124257 0.095718352605620657392 0.10891912951918161778 0.12149171882662881949 0.24266324601440439346 0.6944123428222247485 0.91743992123614903633 0.64954669079632421091 0.14126703615860575214 0.14840000242801498764 0.40464424692112782589 0.59987280318267255375 0.28451881849712673533 0.11409200357787359359 0.06059976931077355744 0.053077532384441711288 0.048082468771038541777 0.045020992806578834233 0.042405965947948251471 0.039667880954798069582 0.036599797678375026178 0.032927949907837955612 0.028630520537515708607 0.023877151102198616861 0.019110149612054247448 0.016864793487358101243 0.016404954694971815576 0.016243538095523403497 0.016179921181809574227 0.015908902682104330423 0.015250011880692282071 0.015859978540037844574 0.042190088899103680986 0.062751694912620559208 0.079397065836264074656 0.097495864568775791881 0.21365741673379448629 0.6450438910632509959 0.83573295392331747866 0.44550407299794581029 0.075323771218692492369 0.027874869079048548992 0.16491288879700510828 0.61596671763779309305 0.73108490722805585804 0.40911949112980028342 0.073109721357959400745 0.014548304298451735297 0.011547358914655090137 0.011406045012787914897 0.011277277386330797695 0.011141218870540283564 0.010989412126746374299 0.010805882954676361563 0.010589999189761343037 0.010351883795990163631 0.010096005993415903268 0.010000000000000000208 0.010000000000000000208 0.010000000000000000208 0.010000000000000000208 0.010000000000000000208 0.010000000000000000208 0.010000000000000000208 0.28012905743351346199 0.36615163442613779532 0.44670884149453321532 0.52639931183946209181 0.69470523829359731582 0.86570824880788022071 0.68543942681485592328 0.18527544189071867842 0.023371455733642739622 0.011096731150633334234 0.044430042611388075036 0.27821697938423728402 0.6349118014229658824 0.52488830386419216278 0.10648190338714502712 0.015316194450202713639 0.01000107541699606431 0.010000000000000000208 0.010000000000000000208 0.010000000000000000208 0.010000000000000000208 0.010000000000000000208 0.010000000000000000208 0.010000000000000000208 0.010000000000000000208 0.010000000000000000208 0.010000000000000000208 0.010000000000000000208 0.010000000000000000208 0.010000000000000000208 0.010000000000000000208 0.010000000000000000208 0.87016818408761953396 0.87421404765702126483 0.8586253410643595041 0.84655932429710689657 0.85499876446933542606 0.75199328975920853857 0.35031782504051300897 0.059867255077632200444 0.011937373166931126295 0.010000000000000000208 0.012200149409914944412 0.04726320428206143287 0.14711342384588904642 0.12750302006306060698 0.024048251299258548153 0.010196317371946529012 0.010000000000000000208 0.010000000000000000208 0.010000000000000000208 0.010000000000000000208 0.010000000000000000208 0.010000000000000000208 0.010000000000000000208 0.010000000000000000208 0.010000000000000000208 0.010000000000000000208 0.010000000000000000208 0.010000000000000000208 0.010000000000000000208 0.010000000000000000208 0.010000000000000000208 0.010000000000000000208 0.83710058639884865617 0.75889879796329340333 0.60915096764202181223 0.48152721555979854928 0.38883590193763184484 0.22841569876465517286 0.069276524965394631339 0.014188091464777410899 0.010000000000000000208 0.010000000000000000208 0.010000000000000000208 0.011576810649721472682 0.02139277117754520563 0.019058461312576047142 0.010389408492904862041 0.010000000000000000208 0.010000000000000000208 0.010000000000000000208 0.010000000000000000208 0.010000000000000000208 0.010000000000000000208 0.010000000000000000208 0.010000000000000000208 0.010000000000000000208 0.010000000000000000208 0.010000000000000000208 0.010000000000000000208 0.010000000000000000208 0.010000000000000000208 0.010000000000000000208 0.010000000000000000208 0.010000000000000000208 0.16472506585635571241 0.14029203874888571124 0.1063683318387930038 0.08079689949909733826 0.0647985958257164818 0.03243006397442656924 0.013049049132311680774 0.010000000000000000208 0.010000000000000000208 0.010000000000000000208 0.010000000000000000208 0.010000000000000000208 0.010326404463520103341 0.010194166537954289786 0.010000000000000000208 0.010000000000000000208 0.010000000000000000208 0.010000000000000000208 0.010000000000000000208 0.010000000000000000208 0.010000000000000000208 0.010000000000000000208 0.010000000000000000208 0.010000000000000000208 0.010000000000000000208 0.010000000000000000208 0.010000000000000000208 0.010000000000000000208 0.010000000000000000208 0.010000000000000000208 0.010000000000000000208 0.010000000000000000208 0.019419285139569482379 0.016434626835680116175 0.014424683354125961837 0.013127070121573139808 0.012519705422838369249 0.010677084408577836375 0.010000000000000000208 0.010000000000000000208 0.010000000000000000208 0.010000000000000000208 0.010000000000000000208 0.010000000000000000208 0.010000000000000000208 0.010000000000000000208 0.010000000000000000208 0.010000000000000000208 0.010000000000000000208 0.010000000000000000208 0.010000000000000000208 0.010000000000000000208 0.010000000000000000208 0.010000000000000000208 0.010000000000000000208 0.010000000000000000208 0.010000000000000000208 0.010000000000000000208 0.010000000000000000208 0.010000000000000000208 0.010000000000000000208 0.010000000000000000208 0.010000000000000000208 0.010000000000000000208 0.010141665247242807185 0.010000000000000000208 0.010000000000000000208 0.010000000000000000208 0.010000000000000000208 0.010000000000000000208 0.010000000000000000208 0.010000000000000000208 0.010000000000000000208 0.010000000000000000208 0.010000000000000000208 0.010000000000000000208 0.010000000000000000208 0.010000000000000000208 0.010000000000000000208 0.010000000000000000208 0.010000000000000000208 0.010000000000000000208 0.010000000000000000208 0.010000000000000000208 0.010000000000000000208 0.010000000000000000208 0.010000000000000000208 0.010000000000000000208 0.010000000000000000208 0.010000000000000000208 0.010000000000000000208 0.010000000000000000208 0.010000000000000000208 0.010000000000000000208 0.010000000000000000208 0.010000000000000000208 0.010000000000000000208 0.010000000000000000208 0.010000000000000000208 0.010000000000000000208 0.010000000000000000208 0.010000000000000000208 0.010000000000000000208 0.010000000000000000208 0.010000000000000000208 0.010000000000000000208 0.010000000000000000208 0.010000000000000000208 0.010000000000000000208 0.010000000000000000208 0.010000000000000000208 0.010000000000000000208 0.010000000000000000208 0.010000000000000000208 0.010000000000000000208 0.010000000000000000208 0.010000000000000000208 0.010000000000000000208 0.010000000000000000208 0.010000000000000000208 0.010000000000000000208 0.010000000000000000208 0.010000000000000000208 0.010000000000000000208 0.010000000000000000208 0.010000000000000000208 0.010000000000000000208 0.010000000000000000208 0.010000000000000000208 0.010000000000000000208 0.010000000000000000208 0.010000000000000000208 0.010000000000000000208 0.010000000000000000208 0.010000000000000000208 0.010000000000000000208 0.010000000000000000208 0.010000000000000000208 0.010000000000000000208 0.010000000000000000208 0.010000000000000000208 0.010000000000000000208 0.010000000000000000208 0.010000000000000000208 0.010000000000000000208 0.010000000000000000208 0.010000000000000000208 0.010000000000000000208 0.010000000000000000208 0.010000000000000000208 0.010000000000000000208 0.010000000000000000208 0.010000000000000000208 0.010000000000000000208 0.010000000000000000208 0.010000000000000000208 0.010000000000000000208 0.010000000000000000208 0.010000000000000000208 0.010000000000000000208 0.010000000000000000208 0.010000000000000000208 0.010000000000000000208 0.010000000000000000208 0.010000000000000000208 0.010000000000000000208 0.010000000000000000208 0.010000000000000000208 0.010000000000000000208 0.010000000000000000208 0.010000000000000000208 0.010000000000000000208 0.010000000000000000208 0.010000000000000000208 0.010000000000000000208 0.010000000000000000208 0.010000000000000000208 0.010000000000000000208 0.010000000000000000208 0.010000000000000000208 0.010000000000000000208 0.010000000000000000208 0.010000000000000000208 0.010000000000000000208 0.010000000000000000208 0.010000000000000000208 0.010000000000000000208 0.010000000000000000208 0.010000000000000000208 0.010000000000000000208 0.010000000000000000208 0.010000000000000000208 0.010000000000000000208 0.010000000000000000208 0.010000000000000000208 0.010000000000000000208 0.010000000000000000208 0.010000000000000000208 0.010000000000000000208 0.010000000000000000208 0.010000000000000000208 0.010000000000000000208 0.010000000000000000208 0.010000000000000000208 0.010000000000000000208 0.010000000000000000208 0.010000000000000000208 0.010000000000000000208 0.010000000000000000208 0.010000000000000000208 0.010000000000000000208 0.010000000000000000208 0.010000000000000000208 0.010000000000000000208 0.010000000000000000208 0.010000000000000000208 0.010000000000000000208 0.010000000000000000208 0.010000000000000000208 0.010000000000000000208 0.010000000000000000208 0.010000000000000000208 0.010000000000000000208 0.010000000000000000208 0.010000000000000000208 0.010000000000000000208 0.010000000000000000208 0.010000000000000000208 0.010000000000000000208 0.010000000000000000208 0.010000000000000000208 0.010000000000000000208 0.010000000000000000208 0.010000000000000000208 0.010000000000000000208 0.010000000000000000208 0.010000000000000000208 0.010000000000000000208 0.010000000000000000208 0.010000000000000000208 0.010000000000000000208 0.010000000000000000208 0.010000000000000000208 0.010000000000000000208 0.010000000000000000208 0.010000000000000000208 0.010000000000000000208 0.010000000000000000208 0.010000000000000000208 0.010000000000000000208 0.010000000000000000208 0.010000000000000000208 0.010000000000000000208 0.010000000000000000208 0.010000000000000000208 0.010000000000000000208 0.010000000000000000208 0.010000000000000000208 0.010000000000000000208 0.010000000000000000208 0.010000000000000000208 0.010000000000000000208 0.010000000000000000208 0.010000000000000000208 0.010000000000000000208 0.010000000000000000208 0.010000000000000000208 0.010000000000000000208 0.010000000000000000208 0.010000000000000000208 0.010000000000000000208 0.010000000000000000208 0.010000000000000000208 0.010000000000000000208 0.010000000000000000208 0.010000000000000000208 0.010000000000000000208 0.010000000000000000208 0.010000000000000000208 0.010000000000000000208 0.010000000000000000208 0.010000000000000000208 0.010000000000000000208 0.010000000000000000208 0.010000000000000000208 0.010000000000000000208 0.010000000000000000208 0.010000000000000000208 0.010000000000000000208 0.010000000000000000208 0.010000000000000000208 0.010000000000000000208 0.010000000000000000208 0.010000000000000000208 0.010000000000000000208 0.010000000000000000208 0.010000000000000000208 0.010000000000000000208 0.010000000000000000208 0.010000000000000000208 0.010000000000000000208 0.010000000000000000208 0.010000000000000000208 0.010000000000000000208 0.010000000000000000208 0.010000000000000000208 0.010000000000000000208 0.010000000000000000208 0.010000000000000000208 0.010000000000000000208 0.010000000000000000208 0.010000000000000000208 0.010000000000000000208 0.010000000000000000208 0.010000000000000000208 0.010000000000000000208 0.010000000000000000208 0.010000000000000000208 0.010000000000000000208 0.010000000000000000208 0.010000000000000000208 0.010000000000000000208 0.010000000000000000208 0.010000000000000000208 0.010000000000000000208 0.010000000000000000208 0.010000000000000000208 0.010000000000000000208 0.010000000000000000208 0.010000000000000000208 0.010000000000000000208 0.010000000000000000208 0.010000000000000000208 0.010000000000000000208 0.010000000000000000208 0.010000000000000000208 0.010000000000000000208 0.010000000000000000208 0.010000000000000000208 0.010000000000000000208 0.010000000000000000208 0.010000000000000000208 0.010000000000000000208 0.010000000000000000208 0.010000000000000000208 0.010000000000000000208 0.010000000000000000208 0.010000000000000000208 0.010000000000000000208 0.010000000000000000208 0.010000000000000000208 0.010000000000000000208 
        </DataArray>
      </CellData>
      <Points>
        <DataArray Name="m" NumberOfComponents="3" type="Float32" format="ascii">