<?xml version="1.0"?>
<VTKFile type="StructuredGrid" version="0.1" byte_order="LittleEndian">
  <StructuredGrid WholeExtent="0 32 0 32 0 1">
    <Piece Extent="0 32 0 32 0 1">
      <PointData>
      </PointData>
      <CellData>
        <DataArray Name="rho" NumberOfComponents="1" type="Float32" format="ascii">
1 1 1 1 1 1 1 1 1 1 1 1 1 1 1 1 1 1 1 1 1 1 1 1 1 1 1 1 1 1 1 1 1 1 1 1 1 1 1 1 1 1 1 1 1 1 1 1 1 1 1 1 1 1 1 1 1 1 1 1 1 1 1 1 1 1 1 1 1 1 1 1 1 1 1 1 1 1 1 1 1 1 1 1 1 1 1 1 1 1 1 1 1 1 1 1 1 1 1 1 1 1 1 1 1 1 1 1 1 1 1 1 1 1 1 1 1 1 1 1 1 1 1 1 1 1 1 1 1 1 1 1 1 1 1 1 1 1 1 1 1 1 1 1 1 1 1 1 1 1 1 1 1 1 1 1 1 1 1 1 1 1 1 1 1 1 1 1 1 1 1 1 1 1 1 1 1 1 1 1 1 1 1 1 1 1 1 1 1 1 1 1 1 1 1 1 1 1 1 1 1 1 1 1 1 1 1 1 1 1 1 1 1 1 1 1 1 1 1 1 1 1 1 1 1 1 1 1 1 1 1 1 1 1 1 1 1 1 1 1 1 1 1 1 1 1 1 1 1 1 1 1 1 1 1 1 1 1 1 1 1 1 1 1 1 1 1 1 1 1 1 1 1 1 1 1 1 1 1 1 1 1 1 1 1 1 1 1 1 1 1 1 1 1 1 1 1 1 1 1 1 1 1 1 1 1 1 1 1 1 1 1 1 1 1 1 1 1 1 1 1 1 1 1 1 1 1 1 1 1 1 1 1 1 1 1 1 1 1 1 1 1 1 1 1 1 1 1 1 1 1 1 1 1 1 1 1 1 0.99981002279230113405 0.99942403077814523371 0.99997403697613451712 1 1 1 1 1 1 1 1 1 1 1 1 1 1 1 1 1 1 1 1 1 1 1 1 1 1 1 1 0.99962004558460237913 0.99251173279095949997 0.98347761198719652054 0.99499193393388540851 0.99994807395226925628 0.99949093491924245747 0.99986609981899321475 1 1 1 1 1 1 1 1 1 1 1 1 0.99997342447210313399 0.99972086883290978143 0.99944351724548474714 0.99928773385131297591 0.99918967480259213154 0.99898704379890868044 0.99827543687120645632 0.99885228379985113722 0.99539218833700526812 0.99671490494311498765 0.99724887706118892083 0.99791044086605551477 0.99919411781547839979 0.98979100857066459884 0.91000245366698295779 0.82850496296202091884 0.9177072793004957818 0.99110905375366631365 0.98686662352963439027 0.99015136589355612351 0.99348039388821973716 0.99470727438678530063 0.99495218102543969696 0.99469433284591302069 0.99455583839402750268 0.99444595017217018995 0.994316232181486237 0.99418117043216225337 0.99403124637041628819 0.99385108781435194114 0.99363939307126036837 0.99335099585713326764 0.99218586895266824843 0.98749278476173230068 0.98223848129619995007 0.9789951257171608523 0.97670935214191645368 0.97184792413013676438 0.96121064513682252795 0.96901698213973508356 0.90361419995232461488 0.92584560988622666144 0.93835772459736210838 0.95295799802561986791 0.97649754930448662282 0.93523666023625140475 0.62594554217856901435 0.32073289826689965754 0.59914753318741242882 0.91434000333670639726 0.86927761511359469271 0.85000927410220050717 0.86667627655960988164 0.88570824055890362558 0.89116311087243205158 0.88725036437354320995 0.88429898034060649969 0.88200434390575110921 0.87943895611244538024 0.87671868401840025165 0.87368945841968814747 0.87008368391298440692 0.86583918306682661203 0.86050447660231055291 0.85006301223208990958 0.82669156143698119266 0.80108491491521571781 0.78402988729032763171 0.77063828309649862192 0.74432578275773397802 0.70182590742463879518 0.72888630979692159428 0.40997108140258470277 0.50779821170598027358 0.57733045646774927562 0.65778311847212389551 0.79986440311710904627 0.92732095334487818494 0.74983177525520761098 0.42825333093945339158 0.61272016880525814742 0.82770943903290705723 0.50963692363814816488 0.28277382917425786246 0.24329439934049745808 0.3037816084518055737 0.33110305809733475702 0.31612116879251833668 0.300934952290127955 0.28877824419387082555 0.27574980277482985525 0.26180128420399173539 0.2462215103852773701 0.22781451978784739154 0.20638807058578220732 0.18296965170894433084 0.16138737475508913022 0.14973136740584236382 0.14353282102939896037 0.14024512571716077347 0.1379593521419163471 0.13309792413013671331 0.1224606451368225879 0.13026698213973525453 0.065720481865552612954 0.089030472249022080122 0.10293591282123991382 0.13547592050130069508 0.3136074874226585929 0.79693775122115173559 0.91485878633944905935 0.69717661292087862446 0.53024862779380554922 0.65953806316097074447 0.59161548432317601076 0.44758333341939138261 0.20359262769990182917 0.072845595420281045174 0.053532669187084394591 0.048500364373543228269 0.04554898034060660128 0.043254343905751176103 0.040688956112445606728 0.037968684018400006286 0.034939458419688242119 0.031333683912984362785 0.027115758594723489427 0.022458816215750868062 0.018116154029140064258 0.016684548299307669361 0.016318517245484664979 0.016162733851312956201 0.016064674802592073671 0.015862043798908702363 0.015150436871206506007 0.015727283799851159152 0.03842498750069948954 0.058385961734670574486 0.073825157977802438602 0.10344326708936632531 0.27511751850634530436 0.75487895684468331314 0.81631298472654778564 0.38163733956839834827 0.13022945321937570706 0.17433953513251337908 0.41289589795832037922 0.73664241049540635231 0.62068199104540733302 0.17388789097944620798 0.027677354566780595913 0.012032467074832534082 0.011430838394027488178 0.011320950172170189327 0.011191232181486326577 0.011056170432162186826 0.010906246370416247671 0.010726087814351959598 0.010514393071260430199 0.010279146912927012922 0.010044339733198912393 0.010000000000000000208 0.010000000000000000208 0.010000000000000000208 0.010000000000000000208 0.010000000000000000208 0.010000000000000000208 0.010000000000000000208 0.26181696627423178825 0.34498009220800285313 0.42078409754746110005 0.51690290750654710461 0.71798082538271323916 0.864245598017927108 0.58495606146793521773 0.13963164599994670745 0.021518144216670850866 0.024829977633377318946 0.13648696200200827189 0.49636398893174565883 0.66406076510443845518 0.24679841244559341806 0.042539125799379545745 0.011555427338930926787 0.010000000000000000208 0.010000000000000000208 0.010000000000000000208 0.010000000000000000208 0.010000000000000000208 0.010000000000000000208 0.010000000000000000208 0.010000000000000000208 0.010000000000000000208 0.010000000000000000208 0.010000000000000000208 0.010000000000000000208 0.010000000000000000208 0.010000000000000000208 0.010000000000000000208 0.010000000000000000208 0.8665039700584796778 0.86861946423532532258 0.85452234988025221885 0.84852291812331792631 0.85249029692649880285 0.70413562972105847582 0.26148493113832366186 0.039549202499746999306 0.01078952387875314195 0.010019358699417063238 0.020954940298257566239 0.10438419484222781486 0.20131399065992638953 0.066038293891241231504 0.014406950967843869249 0.010018235719987486632 0.010000000000000000208 0.010000000000000000208 0.010000000000000000208 0.010000000000000000208 0.010000000000000000208 0.010000000000000000208 0.010000000000000000208 0.010000000000000000208 0.010000000000000000208 0.010000000000000000208 0.010000000000000000208 0.010000000000000000208 0.010000000000000000208 0.010000000000000000208 0.010000000000000000208 0.010000000000000000208 0.83636685550463951699 0.75299776711812471675 0.61636194249952558355 0.50232334842297376998 0.39343392218057521292 0.20964719030627271268 0.050177211177434989653 0.012096831974986076846 0.010000000000000000208 0.010000000000000000208 0.010000000000000000208 0.015636316155489701774 0.032795216241586773454 0.013855848399096811624 0.010036471439974865502 0.010000000000000000208 0.010000000000000000208 0.010000000000000000208 0.010000000000000000208 0.010000000000000000208 0.010000000000000000208 0.010000000000000000208 0.010000000000000000208 0.010000000000000000208 0.010000000000000000208 0.010000000000000000208 0.010000000000000000208 0.010000000000000000208 0.010000000000000000208 0.010000000000000000208 0.010000000000000000208 0.010000000000000000208 0.16928352294043000348 0.13969009400733539694 0.10786603862961674505 0.085586170131986480381 0.065786545613040578462 0.029526625492753602598 0.011825092313712950304 0.010000000000000000208 0.010000000000000000208 0.010000000000000000208 0.010000000000000000208 0.010000000000000000208 0.011004324770183648852 0.010018235719987486632 0.010000000000000000208 0.010000000000000000208 0.010000000000000000208 0.010000000000000000208 0.010000000000000000208 0.010000000000000000208 0.010000000000000000208 0.010000000000000000208 0.010000000000000000208 0.010000000000000000208 0.010000000000000000208 0.010000000000000000208 0.010000000000000000208 0.010000000000000000208 0.010000000000000000208 0.010000000000000000208 0.010000000000000000208 0.010000000000000000208 0.020436004765032163288 0.016441145688163013444 0.014492406578680325224 0.013412181576340654471 0.012565725876587365006 0.010517784217480013673 0.010000000000000000208 0.010000000000000000208 0.010000000000000000208 0.010000000000000000208 0.010000000000000000208 0.010000000000000000208 0.010000000000000000208 0.010000000000000000208 0.010000000000000000208 0.010000000000000000208 0.010000000000000000208 0.010000000000000000208 0.010000000000000000208 0.010000000000000000208 0.010000000000000000208 0.010000000000000000208 0.010000000000000000208 0.010000000000000000208 0.010000000000000000208 0.010000000000000000208 0.010000000000000000208 0.010000000000000000208 0.010000000000000000208 0.010000000000000000208 0.010000000000000000208 0.010000000000000000208 0.010198040386092139392 0.010000000000000000208 0.010000000000000000208 0.010000000000000000208 0.010000000000000000208 0.010000000000000000208 0.010000000000000000208 0.010000000000000000208 0.010000000000000000208 0.010000000000000000208 0.010000000000000000208 0.010000000000000000208 0.010000000000000000208 0.010000000000000000208 0.010000000000000000208 0.010000000000000000208 0.010000000000000000208 0.010000000000000000208 0.010000000000000000208 0.010000000000000000208 0.010000000000000000208 0.010000000000000000208 0.010000000000000000208 0.010000000000000000208 0.010000000000000000208 0.010000000000000000208 0.010000000000000000208 0.010000000000000000208 0.010000000000000000208 0.010000000000000000208 0.010000000000000000208 0.010000000000000000208 0.010000000000000000208 0.010000000000000000208 0.010000000000000000208 0.010000000000000000208 0.010000000000000000208 0.010000000000000000208 0.010000000000000000208 0.010000000000000000208 0.010000000000000000208 0.010000000000000000208 0.010000000000000000208 0.010000000000000000208 0.010000000000000000208 0.010000000000000000208 0.010000000000000000208 0.010000000000000000208 0.010000000000000000208 0.010000000000000000208 0.010000000000000000208 0.010000000000000000208 0.010000000000000000208 0.010000000000000000208 0.010000000000000000208 0.010000000000000000208 0.010000000000000000208 0.010000000000000000208 0.010000000000000000208 0.010000000000000000208 0.010000000000000000208 0.010000000000000000208 0.010000000000000000208 0.010000000000000000208 0.010000000000000000208 0.010000000000000000208 0.010000000000000000208 0.010000000000000000208 0.010000000000000000208 0.010000000000000000208 0.010000000000000000208 0.010000000000000000208 0.010000000000000000208 0.010000000000000000208 0.010000000000000000208 0.010000000000000000208 0.010000000000000000208 0.010000000000000000208 0.010000000000000000208 0.010000000000000000208 0.010000000000000000208 0.010000000000000000208 0.010000000000000000208 0.010000000000000000208 0.010000000000000000208 0.010000000000000000208 0.010000000000000000208 0.010000000000000000208 0.010000000000000000208 0.010000000000000000208 0.010000000000000000208 0.010000000000000000208 0.010000000000000000208 0.010000000000000000208 0.010000000000000000208 0.010000000000000000208 0.010000000000000000208 0.010000000000000000208 0.010000000000000000208 0.010000000000000000208 0.010000000000000000208 0.010000000000000000208 0.010000000000000000208 0.010000000000000000208 0.010000000000000000208 0.010000000000000000208 0.010000000000000000208 0.010000000000000000208 0.010000000000000000208 0.010000000000000000208 0.010000000000000000208 0.010000000000000000208 0.010000000000000000208 0.010000000000000000208 0.010000000000000000208 0.010000000000000000208 0.010000000000000000208 0.010000000000000000208 0.010000000000000000208 0.010000000000000000208 0.010000000000000000208 0.010000000000000000208 0.010000000000000000208 0.010000000000000000208 0.010000000000000000208 0.010000000000000000208 0.010000000000000000208 0.010000000000000000208 0.010000000000000000208 0.010000000000000000208 0.010000000000000000208 0.010000000000000000208 0.010000000000000000208 0.010000000000000000208 0.010000000000000000208 0.010000000000000000208 0.010000000000000000208 0.010000000000000000208 0.010000000000000000208 0.010000000000000000208 0.010000000000000000208 0.010000000000000000208 0.010000000000000000208 0.010000000000000000208 0.010000000000000000208 0.010000000000000000208 0.010000000000000000208 0.010000000000000000208 0.010000000000000000208 0.010000000000000000208 0.010000000000000000208 0.010000000000000000208 0.010000000000000000208 0.010000000000000000208 0.010000000000000000208 0.010000000000000000208 0.010000000000000000208 0.010000000000000000208 0.010000000000000000208 0.010000000000000000208 0.010000000000000000208 0.010000000000000000208 0.010000000000000000208 0.010000000000000000208 0.010000000000000000208 0.010000000000000000208 0.010000000000000000208 0.010000000000000000208 0.010000000000000000208 0.010000000000000000208 0.010000000000000000208 0.010000000000000000208 0.010000000000000000208 0.010000000000000000208 0.010000000000000000208 0.010000000000000000208 0.010000000000000000208 0.010000000000000000208 0.010000000000000000208 0.010000000000000000208 0.010000000000000000208 0.010000000000000000208 0.010000000000000000208 0.010000000000000000208 0.010000000000000000208 0.010000000000000000208 0.010000000000000000208 0.010000000000000000208 0.010000000000000000208 0.010000000000000000208 0.010000000000000000208 0.010000000000000000208 0.010000000000000000208 0.010000000000000000208 0.010000000000000000208 0.010000000000000000208 0.010000000000000000208 0.010000000000000000208 0.010000000000000000208 0.010000000000000000208 0.010000000000000000208 0.010000000000000000208 0.010000000000000000208 0.010000000000000000208 0.010000000000000000208 0.010000000000000000208 0.010000000000000000208 0.010000000000000000208 0.010000000000000000208 0.010000000000000000208 0.010000000000000000208 0.010000000000000000208 0.010000000000000000208 0.010000000000000000208 0.010000000000000000208 0.010000000000000000208 0.010000000000000000208 0.010000000000000000208 0.010000000000000000208 0.010000000000000000208 0.010000000000000000208 0.010000000000000000208 0.010000000000000000208 0.010000000000000000208 0.010000000000000000208 0.010000000000000000208 0.010000000000000000208 0.010000000000000000208 0.010000000000000000208 0.010000000000000000208 0.010000000000000000208 0.010000000000000000208 0.010000000000000000208 0.010000000000000000208 0.010000000000000000208 0.010000000000000000208 0.010000000000000000208 0.010000000000000000208 0.010000000000000000208 0.010000000000000000208 0.010000000000000000208 0.010000000000000000208 0.010000000000000000208 0.010000000000000000208 0.010000000000000000208 0.010000000000000000208 0.010000000000000000208 0.010000000000000000208 0.010000000000000000208 0.010000000000000000208 0.010000000000000000208 0.010000000000000000208 0.010000000000000000208 0.010000000000000000208 0.010000000000000000208 0.010000000000000000208 0.010000000000000000208 0.010000000000000000208 0.010000000000000000208 0.010000000000000000208 0.010000000000000000208 0.010000000000000000208 0.010000000000000000208 0.010000000000000000208 0.010000000000000000208 0.010000000000000000208 0.010000000000000000208 0.010000000000000000208 0.010000000000000000208 0.010000000000000000208 0.010000000000000000208 0.010000000000000000208 0.010000000000000000208 0.010000000000000000208 0.010000000000000000208 0.010000000000000000208 0.010000000000000000208 0.010000000000000000208 0.010000000000000000208 0.010000000000000000208 0.010000000000000000208 0.010000000000000000208 0.010000000000000000208 0.010000000000000000208 0.010000000000000000208 0.010000000000000000208 0.010000000000000000208 0.010000000000000000208 
        </DataArray>
      </CellData>
      <Points>
        <DataArray Name="m" NumberOfComponents="3" type="Float32" format="ascii">