<?xml version="1.0"?>
<VTKFile type="StructuredGrid" version="0.1" byte_order="LittleEndian">
  <StructuredGrid WholeExtent="0 32 0 32 0 1">
    <Piece Extent="0 32 0 32 0 1">
      <PointData>
      </PointData>
      <CellData>
        <DataArray Name="rho" NumberOfComponents="1" type="Float32" format="ascii">
1 1 1 1 1 1 1 1 1 1 1 1 1 1 1 1 1 1 1 1 1 1 1 1 1 1 1 1 1 1 1 1 1 1 1 1 1 1 1 1 1 1 1 1 1 1 1 1 1 1 1 1 1 1 1 1 1 1 1 1 1 1 1 1 1 1 1 1 1 1 1 1 1 1 1 1 1 1 1 1 1 1 1 1 1 1 1 1 1 1 1 1 1 1 1 1 1 1 1 1 1 1 1 1 1 1 1 1 1 1 1 1 1 1 1 1 1 1 1 1 1 1 1 1 1 1 1 1 1 1 1 1 1 1 1 1 1 1 1 1 1 1 1 1 1 1 1 1 1 1 1 1 1 1 1 1 1 1 1 1 1 1 1 1 1 1 1 1 1 1 1 1 1 1 1 1 1 1 1 1 1 1 1 1 1 1 1 1 1 1 1 1 1 1 1 1 1 1 1 1 1 1 1 1 1 1 1 1 1 1 1 1 1 1 1 1 1 1 1 1 1 1 1 1 1 1 1 1 1 1 1 1 1 1 1 1 1 1 1 1 1 1 1 1 1 1 1 1 1 1 1 1 1 1 1 1 1 1 1 1 1 1 1 1 1 1 1 1 1 1 1 1 1 1 1 1 1 1 1 1 1 1 1 1 1 1 1 1 1 1 1 1 1 1 1 1 1 1 1 1 1 1 1 1 1 1 1 1 1 1 1 1 1 1 1 1 1 1 1 1 1 1 1 1 1 1 1 1 1 1 1 1 1 1 1 1 1 1 1 1 1 1 1 1 1 1 1 1 1 1 1 1 1 1 1 1 1 1 1 1 1 1 1 1 1 1 1 1 1 1 1 1 1 1 1 1 1 1 1 1 1 1 1 1 1 1 1 1 1 1 1 1 1 1 1 1 1 1 1 1 1 1 1 1 1 1 1 1 1 1 1 1 1 1 1 1 0.99748397605085603601 0.99527771537379083888 0.99550636064684372428 0.99558134026796551996 0.99586532754382461885 0.99610183934274132422 0.99629746508076144629 0.99646134728938640102 0.996617668628119735 0.99676795577271126714 0.9968896116970314969 0.99696871138917630972 0.99701607765755007051 0.99705828522337847097 0.99710490699895004685 0.99713888772566050545 0.99713683799772745431 0.9970908641892116675 0.99701710536247700745 0.99693984546456271278 0.9968660571686660532 0.99678324805130202879 0.99667595657211316418 0.9965433182837720727 0.99640216996615837974 0.99627533223685704744 0.99615661324039828095 0.99600611789904991422 0.99575441281299315044 0.995078320572056918 0.99505779506073344098 0.9967817443663735677 0.93839199966299036149 0.90354911937605364436 0.90294488163301300787 0.90516982066878504121 0.91033659992260773652 0.9150800147330344636 0.91901081455643862661 0.92233682404794437026 0.92546630417411257508 0.92842685301368410578 0.93083212147627947264 0.93243576093598468102 0.93343623574591128023 0.93429953288705525072 0.93519785788127840487 0.9358306936039227919 0.9357739117933844275 0.93488671374779563905 0.93346010510718091524 0.93192885249528945035 0.93042810173038548172 0.92874099630239070891 0.92659343782395720002 0.92397434561689639754 0.92119702049979323988 0.91864788220282544984 0.91619371211818556588 0.91304493849158185892 0.90736448195010488416 0.89600254490036346233 0.89776985084859728392 0.92531198871619091406 0.55950651027319575626 0.41542034889979778667 0.39721464630409747398 0.41032058236895296854 0.43430554659453529665 0.45719744485714380877 0.47734660777776666274 0.49450855013582567521 0.51048239248350402164 0.52539253642535532762 0.53753901627401512453 0.5458146451333868443 0.55114474521026535214 0.55563174880857280069 0.5600663587685027478 0.56308643470434349698 0.56272802684485190294 0.55834559181988885346 0.55128241427522006735 0.54353920432906610571 0.53577944565771395968 0.52704125108933819188 0.51608333539969841741 0.50287924819700502432 0.48890353584135093357 0.4758375595940051439 0.46293448530074210456 0.44597108679857272451 0.41549049512237884452 0.36673398714491839412 0.38185226032413316366 0.49635236337990434885 0.10031193404922723877 0.067668749740999817321 0.074810172803821503584 0.10503387989290090265 0.099793849267803699798 0.082611692947781492635 0.080569010760232151469 0.083586824047944305316 0.086716304174112468495 0.089676853013684040827 0.092082121476279435446 0.093685760935984740971 0.094686235745911478956 0.095549532887055255159 0.096447857881278395431 0.097080693603922713075 0.097023911793384237656 0.096136713747795699003 0.094710105107180947437 0.093178852495289316016 0.091678101730385486157 0.089990996302390713346 0.087843437823957218336 0.085224345616896429734 0.082447020499793452486 0.079897882202825495912 0.077443712118185653592 0.074294938491581918871 0.068614481950105013497 0.057252544900363445957 0.059019850848597288362 0.086561988716190765847 0.038843270365193770244 0.078978051301752671964 0.16820553660385292871 0.29858508296052610476 0.25601531768646179632 0.11890438919026252718 0.030425254267397262853 0.013952739696973253877 0.013492668628119855803 0.01364295577271128386 0.01376461169703146678 0.013843711389176333384 0.013891077657550141011 0.013933285223378392287 0.01397990699895003408 0.014013887725660442371 0.014011837997727467561 0.013965864189211618304 0.013892105362477071007 0.013814845464562686139 0.0137410571686659988 0.01365824805130213225 0.013550956572113085491 0.013418318283772137992 0.013277169966158472794 0.013150332236857038143 0.013031613240398254305 0.012881117899049982986 0.012629412812993135937 0.011953320572056955542 0.011932795060733566994 0.013656744366373499422 0.26305657244594587985 0.45335677280416325496 0.72046010478516875342 0.8609323139947375747 0.82225902365637182356 0.54622435445231565243 0.16684298542682127198 0.025143700930517383363 0.010308196203793541443 0.010000000000000000208 0.010000000000000000208 0.010000000000000000208 0.010000000000000000208 0.010000000000000000208 0.010000000000000000208 0.010000000000000000208 0.010000000000000000208 0.010000000000000000208 0.010000000000000000208 0.010000000000000000208 0.010000000000000000208 0.010000000000000000208 0.010000000000000000208 0.010000000000000000208 0.010000000000000000208 0.010000000000000000208 0.010000000000000000208 0.010000000000000000208 0.010000000000000000208 0.010000000000000000208 0.010000000000000000208 0.010000000000000000208 0.8618232920416672993 0.8840687039493938526 0.89690598186131376135 0.90401382215090730909 0.92853197703749512648 0.81830309983148907804 0.3746141114425901586 0.068524853106368258104 0.013069015843082797818 0.010000000000000000208 0.010000000000000000208 0.010000000000000000208 0.010000000000000000208 0.010000000000000000208 0.010000000000000000208 0.010000000000000000208 0.010000000000000000208 0.010000000000000000208 0.010000000000000000208 0.010000000000000000208 0.010000000000000000208 0.010000000000000000208 0.010000000000000000208 0.010000000000000000208 0.010000000000000000208 0.010000000000000000208 0.010000000000000000208 0.010000000000000000208 0.010000000000000000208 0.010000000000000000208 0.010000000000000000208 0.010000000000000000208 0.82342010661247444503 0.72785765325519036217 0.53149727007744740348 0.4603137736620910303 0.59112888629273396823 0.59259130888059530218 0.22755278040881013468 0.036837777966458692958 0.010964603604727450256 0.010000000000000000208 0.010000000000000000208 0.010000000000000000208 0.010000000000000000208 0.010000000000000000208 0.010000000000000000208 0.010000000000000000208 0.010000000000000000208 0.010000000000000000208 0.010000000000000000208 0.010000000000000000208 0.010000000000000000208 0.010000000000000000208 0.010000000000000000208 0.010000000000000000208 0.010000000000000000208 0.010000000000000000208 0.010000000000000000208 0.010000000000000000208 0.010000000000000000208 0.010000000000000000208 0.010000000000000000208 0.010000000000000000208 0.1828684456682078685 0.13934445123031802272 0.088705864803740291924 0.072187037730797098956 0.10497141933042633544 0.11214136072344513262 0.039034850728029223121 0.011929207209454792751 0.010000000000000000208 0.010000000000000000208 0.010000000000000000208 0.010000000000000000208 0.010000000000000000208 0.010000000000000000208 0.010000000000000000208 0.010000000000000000208 0.010000000000000000208 0.010000000000000000208 0.010000000000000000208 0.010000000000000000208 0.010000000000000000208 0.010000000000000000208 0.010000000000000000208 0.010000000000000000208 0.010000000000000000208 0.010000000000000000208 0.010000000000000000208 0.010000000000000000208 0.010000000000000000208 0.010000000000000000208 0.010000000000000000208 0.010000000000000000208 0.023854511097293629868 0.016762968354584295572 0.013410827822143912141 0.012463177702416410389 0.014539867919767985455 0.015266088604653331451 0.010964603604727450256 0.010000000000000000208 0.010000000000000000208 0.010000000000000000208 0.010000000000000000208 0.010000000000000000208 0.010000000000000000208 0.010000000000000000208 0.010000000000000000208 0.010000000000000000208 0.010000000000000000208 0.010000000000000000208 0.010000000000000000208 0.010000000000000000208 0.010000000000000000208 0.010000000000000000208 0.010000000000000000208 0.010000000000000000208 0.010000000000000000208 0.010000000000000000208 0.010000000000000000208 0.010000000000000000208 0.010000000000000000208 0.010000000000000000208 0.010000000000000000208 0.010000000000000000208 0.010397173532514561098 0.010000065663896190449 0.010000000000000000208 0.010000000000000000208 0.010000000000000000208 0.010000000000000000208 0.010000000000000000208 0.010000000000000000208 0.010000000000000000208 0.010000000000000000208 0.010000000000000000208 0.010000000000000000208 0.010000000000000000208 0.010000000000000000208 0.010000000000000000208 0.010000000000000000208 0.010000000000000000208 0.010000000000000000208 0.010000000000000000208 0.010000000000000000208 0.010000000000000000208 0.010000000000000000208 0.010000000000000000208 0.010000000000000000208 0.010000000000000000208 0.010000000000000000208 0.010000000000000000208 0.010000000000000000208 0.010000000000000000208 0.010000000000000000208 0.010000000000000000208 0.010000000000000000208 0.010000000000000000208 0.010000000000000000208 0.010000000000000000208 0.010000000000000000208 0.010000000000000000208 0.010000000000000000208 0.010000000000000000208 0.010000000000000000208 0.010000000000000000208 0.010000000000000000208 0.010000000000000000208 0.010000000000000000208 0.010000000000000000208 0.010000000000000000208 0.010000000000000000208 0.010000000000000000208 0.010000000000000000208 0.010000000000000000208 0.010000000000000000208 0.010000000000000000208 0.010000000000000000208 0.010000000000000000208 0.010000000000000000208 0.010000000000000000208 0.010000000000000000208 0.010000000000000000208 0.010000000000000000208 0.010000000000000000208 0.010000000000000000208 0.010000000000000000208 0.010000000000000000208 0.010000000000000000208 0.010000000000000000208 0.010000000000000000208 0.010000000000000000208 0.010000000000000000208 0.010000000000000000208 0.010000000000000000208 0.010000000000000000208 0.010000000000000000208 0.010000000000000000208 0.010000000000000000208 0.010000000000000000208 0.010000000000000000208 0.010000000000000000208 0.010000000000000000208 0.010000000000000000208 0.010000000000000000208 0.010000000000000000208 0.010000000000000000208 0.010000000000000000208 0.010000000000000000208 0.010000000000000000208 0.010000000000000000208 0.010000000000000000208 0.010000000000000000208 0.010000000000000000208 0.010000000000000000208 0.010000000000000000208 0.010000000000000000208 0.010000000000000000208 0.010000000000000000208 0.010000000000000000208 0.010000000000000000208 0.010000000000000000208 0.010000000000000000208 0.010000000000000000208 0.010000000000000000208 0.010000000000000000208 0.010000000000000000208 0.010000000000000000208 0.010000000000000000208 0.010000000000000000208 0.010000000000000000208 0.010000000000000000208 0.010000000000000000208 0.010000000000000000208 0.010000000000000000208 0.010000000000000000208 0.010000000000000000208 0.010000000000000000208 0.010000000000000000208 0.010000000000000000208 0.010000000000000000208 0.010000000000000000208 0.010000000000000000208 0.010000000000000000208 0.010000000000000000208 0.010000000000000000208 0.010000000000000000208 0.010000000000000000208 0.010000000000000000208 0.010000000000000000208 0.010000000000000000208 0.010000000000000000208 0.010000000000000000208 0.010000000000000000208 0.010000000000000000208 0.010000000000000000208 0.010000000000000000208 0.010000000000000000208 0.010000000000000000208 0.010000000000000000208 0.010000000000000000208 0.010000000000000000208 0.010000000000000000208 0.010000000000000000208 0.010000000000000000208 0.010000000000000000208 0.010000000000000000208 0.010000000000000000208 0.010000000000000000208 0.010000000000000000208 0.010000000000000000208 0.010000000000000000208 0.010000000000000000208 0.010000000000000000208 0.010000000000000000208 0.010000000000000000208 0.010000000000000000208 0.010000000000000000208 0.010000000000000000208 0.010000000000000000208 0.010000000000000000208 0.010000000000000000208 0.010000000000000000208 0.010000000000000000208 0.010000000000000000208 0.010000000000000000208 0.010000000000000000208 0.010000000000000000208 0.010000000000000000208 0.010000000000000000208 0.010000000000000000208 0.010000000000000000208 0.010000000000000000208 0.010000000000000000208 0.010000000000000000208 0.010000000000000000208 0.010000000000000000208 0.010000000000000000208 0.010000000000000000208 0.010000000000000000208 0.010000000000000000208 0.010000000000000000208 0.010000000000000000208 0.010000000000000000208 0.010000000000000000208 0.010000000000000000208 0.010000000000000000208 0.010000000000000000208 0.010000000000000000208 0.010000000000000000208 0.010000000000000000208 0.010000000000000000208 0.010000000000000000208 0.010000000000000000208 0.010000000000000000208 0.010000000000000000208 0.010000000000000000208 0.010000000000000000208 0.010000000000000000208 0.010000000000000000208 0.010000000000000000208 0.010000000000000000208 0.010000000000000000208 0.010000000000000000208 0.010000000000000000208 0.010000000000000000208 0.010000000000000000208 0.010000000000000000208 0.010000000000000000208 0.010000000000000000208 0.010000000000000000208 0.010000000000000000208 0.010000000000000000208 0.010000000000000000208 0.010000000000000000208 0.010000000000000000208 0.010000000000000000208 0.010000000000000000208 0.010000000000000000208 0.010000000000000000208 0.010000000000000000208 0.010000000000000000208 0.010000000000000000208 0.010000000000000000208 0.010000000000000000208 0.010000000000000000208 0.010000000000000000208 0.010000000000000000208 0.010000000000000000208 0.010000000000000000208 0.010000000000000000208 0.010000000000000000208 0.010000000000000000208 0.010000000000000000208 0.010000000000000000208 0.010000000000000000208 0.010000000000000000208 0.010000000000000000208 0.010000000000000000208 0.010000000000000000208 0.010000000000000000208 0.010000000000000000208 0.010000000000000000208 0.010000000000000000208 0.010000000000000000208 0.010000000000000000208 0.010000000000000000208 0.010000000000000000208 0.010000000000000000208 0.010000000000000000208 0.010000000000000000208 0.010000000000000000208 0.010000000000000000208 0.010000000000000000208 0.010000000000000000208 0.010000000000000000208 0.010000000000000000208 0.010000000000000000208 0.010000000000000000208 0.010000000000000000208 0.010000000000000000208 0.010000000000000000208 0.010000000000000000208 0.010000000000000000208 0.010000000000000000208 0.010000000000000000208 0.010000000000000000208 0.010000000000000000208 0.010000000000000000208 0.010000000000000000208 0.010000000000000000208 0.010000000000000000208 0.010000000000000000208 0.010000000000000000208 0.010000000000000000208 0.010000000000000000208 0.010000000000000000208 0.010000000000000000208 0.010000000000000000208 0.010000000000000000208 0.010000000000000000208 0.010000000000000000208 0.010000000000000000208 0.010000000000000000208 0.010000000000000000208 0.010000000000000000208 0.010000000000000000208 0.010000000000000000208 0.010000000000000000208 0.010000000000000000208 0.010000000000000000208 0.010000000000000000208 0.010000000000000000208 
        </DataArray>
      </CellData>
      <Points>
        <DataArray Name="m" NumberOfComponents="3" type="Float32" format="ascii">