<?xml version="1.0"?>
<VTKFile type="StructuredGrid" version="0.1" byte_order="LittleEndian">
  <StructuredGrid WholeExtent="0 32 0 32 0 1">
    <Piece Extent="0 32 0 32 0 1">
      <PointData>
      </PointData>
      <CellData>
        <DataArray Name="rho" NumberOfComponents="1" type="Float32" format="ascii">
1 1 1 1 1 1 1 1 1 1 1 1 1 1 1 1 1 1 1 1 1 1 1 1 1 1 1 1 1 1 1 1 1 1 1 1 1 1 1 1 1 1 1 1 1 1 1 1 1 1 1 1 1 1 1 1 1 1 1 1 1 1 1 1 1 1 1 1 1 1 1 1 1 1 1 1 1 1 1 1 1 1 1 1 1 1 1 1 1 1 1 1 1 1 1 1 1 1 1 1 1 1 1 1 1 1 1 1 1 1 1 1 1 1 1 1 1 1 1 1 1 1 1 1 1 1 1 1 1 1 1 1 1 1 1 1 1 1 1 1 1 1 1 1 1 1 1 1 1 1 1 1 1 1 1 1 1 1 1 1 1 1 1 1 1 1 1 1 1 1 1 1 1 1 1 1 1 1 1 1 1 1 1 1 1 1 1 1 1 1 1 1 1 1 1 1 1 1 1 1 1 1 1 1 1 1 1 1 1 1 1 1 1 1 1 1 1 1 1 1 1 1 1 1 1 1 1 1 1 1 1 1 1 1 1 1 1 1 1 1 1 1 1 1 1 1 1 1 1 1 1 1 1 1 1 1 1 1 1 1 1 1 1 1 1 1 1 1 1 1 1 1 1 1 1 1 1 1 1 1 1 1 1 1 1 1 1 1 1 1 1 1 1 1 1 1 1 1 1 1 1 1 1 1 1 1 1 1 1 1 1 1 1 1 1 1 1 1 1 1 1 1 1 1 1 1 1 1 1 1 1 1 1 1 1 1 1 1 1 1 1 1 1 1 1 1 1 1 1 1 1 1 1 1 1 1 1 1 1 1 1 1 1 1 1 1 1 1 1 1 1 1 1 1 1 1 1 1 1 1 1 1 1 1 1 1 1 1 1 1 1 1 0.99710529036515527235 0.99498093238976481612 0.99940894998230600521 1 0.99990177756088050032 0.99999949773119278795 1 1 1 1 1 1 1 1 1 1 0.99998714841564972922 0.99978181727096293585 0.99953598059398229836 0.99938954817289749055 0.99931075449408646172 0.99895686993847254698 0.99857887826708124912 0.99884674052672761668 0.99418515953768260562 0.99534215117543323181 0.99510988212779805107 0.99481539506975080744 0.99576221739390469168 0.99880279788038406341 1 0.99421058073031043367 0.93971844101296553298 0.90584839893115909337 0.97567694435099927563 0.99862144213608128318 0.9939342557717038007 0.99325489497456687094 0.99460357410315491933 0.99497595272857219939 0.99466112996925459822 0.99446941163391067153 0.99433218433906511713 0.99417281547743918679 0.99399000723207286967 0.99379156234570786843 0.99359177490883143768 0.99336553608071509469 0.9925380638637346653 0.9886803343546716194 0.98404342039143744003 0.98105124094249662736 0.97878990812812294298 0.97221418453789720804 0.96599427320370068184 0.96952408601525996712 0.87914217402915439958 0.89718950213789439019 0.89519820653513815234 0.89191552015941888421 0.91255686420274528814 0.96618750943448505897 0.99469147778447353225 0.94080355236867807545 0.64221418390347351224 0.46854386855443913573 0.77879130940090846025 0.96449020388763073708 0.90394720026379371536 0.86724325553954018098 0.88356265727686633671 0.89127115860839623007 0.88659380823304034802 0.88262221475921087688 0.87972440364774096011 0.87653443078130366395 0.87289387135946006069 0.86895356181313432309 0.86494615014719966606 0.86050467907249739152 0.85220950243501347732 0.83265829609531838429 0.81011143040229849355 0.79440072437556175089 0.78041385424086151534 0.74916256869444575184 0.7220039846255438265 0.73354900472397532862 0.28310485327550782841 0.3566125011845904802 0.35556510154480563957 0.35117040614611921834 0.46184336923653795948 0.728511658893073899 0.95973854747353126715 0.91379155305759574013 0.48624843596773670296 0.16791006444601680458 0.40399908363807335299 0.79894949515759761116 0.50209284040114177117 0.26075137773229223326 0.29451409319555221789 0.33016991109092996837 0.31264443068887792787 0.29258678824505574001 0.27714030603935141395 0.26079249158369344208 0.24229949619920476689 0.22232380848945784702 0.20196058122599946927 0.18146940142118336836 0.16220332974790324654 0.15107744834669914469 0.14534847506285061836 0.14230124094249654854 0.14003990812812283639 0.13346418453789718472 0.12724427320370090833 0.13077408601525983278 0.041300886491785045174 0.060746153718566300861 0.059676683719179376975 0.0578112127268644721 0.10211110713761119284 0.35023298272390984698 0.86909848291045332935 0.86401994192177911103 0.43958822914820322447 0.092815521652155730248 0.1845796517573832507 0.67573004452410412313 0.5092140740179984526 0.19299474978391328861 0.066980773253650011112 0.053359275058115766821 0.047843808233040359401 0.04387221475921093683 0.040974403647740978429 0.037784430781303515734 0.034143871359459759818 0.03020356181313432406 0.026209001731549885772 0.022178487151139063271 0.018275501657092893537 0.016766926613789420036 0.016410980593982278652 0.016264548172897332068 0.016185754494086448951 0.015831869938472561965 0.015453878267081293599 0.015721740526727607384 0.038905287026376418613 0.064272955759529876163 0.0830335882476340853 0.10152769405670636349 0.17509685171337369125 0.4601435117027351529 0.82941476115188017548 0.58574176808042299758 0.18584998872930461045 0.031570002725432907975 0.096645830889856773616 0.51068576505947882449 0.7607463467645942945 0.58372621152196690897 0.15650291839214247602 0.025186847637463795346 0.011879359843318611917 0.011344411633910698664 0.011207184339065055789 0.011047815477439189638 0.010865007232072862106 0.010666562345707807091 0.010466774908831478694 0.010266239249415713697 0.010055054671413187969 0.010000000000000000208 0.010000000000000000208 0.010000000000000000208 0.010000000000000000208 0.010000000000000000208 0.010000000000000000208 0.010000000000000000208 0.27291730728697860542 0.38181892400895917072 0.47857389196922128782 0.56700020468846779043 0.70411839250505836585 0.85680468629424022531 0.7865234383487006431 0.26723173522700832683 0.045493268483528609414 0.01150829152386728324 0.023718739403251358489 0.17223952899888544943 0.53626124942783537364 0.67235473151468416741 0.2450550122832904909 0.042111970914483182193 0.011536434064179861003 0.010000000000000000208 0.010000000000000000208 0.010000000000000000208 0.010000000000000000208 0.010000000000000000208 0.010000000000000000208 0.010000000000000000208 0.010000000000000000208 0.010000000000000000208 0.010000000000000000208 0.010000000000000000208 0.010000000000000000208 0.010000000000000000208 0.010000000000000000208 0.010000000000000000208 0.8648884157851108867 0.88246892067829263429 0.87699984009778719773 0.86512007831411941172 0.86167638383379852041 0.78622874323684011078 0.46297475718941172307 0.093691551897893854406 0.014711968067261591009 0.010000000000000000208 0.010200091417359143445 0.025033044900424811924 0.11671723027184675858 0.21897662316068727817 0.070558284815499555664 0.01485758856858544405 0.0100344195281665792 0.010000000000000000208 0.010000000000000000208 0.010000000000000000208 0.010000000000000000208 0.010000000000000000208 0.010000000000000000208 0.010000000000000000208 0.010000000000000000208 0.010000000000000000208 0.010000000000000000208 0.010000000000000000208 0.010000000000000000208 0.010000000000000000208 0.010000000000000000208 0.010000000000000000208 0.82519241045544122759 0.78428780182753876637 0.6670053341040598216 0.52811387347577931628 0.3982919190234426865 0.23999681624616531206 0.093609970108431778124 0.017488089101044358709 0.010000000000000000208 0.010000000000000000208 0.010000000000000000208 0.010100045708679627338 0.016612774562060589334 0.036586693972412251408 0.014555162493963949566 0.010068839056333378501 0.010000000000000000208 0.010000000000000000208 0.010000000000000000208 0.010000000000000000208 0.010000000000000000208 0.010000000000000000208 0.010000000000000000208 0.010000000000000000208 0.010000000000000000208 0.010000000000000000208 0.010000000000000000208 0.010000000000000000208 0.010000000000000000208 0.010000000000000000208 0.010000000000000000208 0.010000000000000000208 0.17087447194616467439 0.14728215370920458294 0.11870813619059862598 0.090416461838862427491 0.065700337787783585908 0.033986342288722388993 0.014570264205204627034 0.010000000000000000208 0.010000000000000000208 0.010000000000000000208 0.010000000000000000208 0.010000000000000000208 0.010000000000000000208 0.011234007989558475807 0.0100344195281665792 0.010000000000000000208 0.010000000000000000208 0.010000000000000000208 0.010000000000000000208 0.010000000000000000208 0.010000000000000000208 0.010000000000000000208 0.010000000000000000208 0.010000000000000000208 0.010000000000000000208 0.010000000000000000208 0.010000000000000000208 0.010000000000000000208 0.010000000000000000208 0.010000000000000000208 0.010000000000000000208 0.010000000000000000208 0.021269946198202861753 0.016924490132258787622 0.015091266020842293918 0.013647453115273374541 0.01249983997640177931 0.010766495967404367609 0.010000000000000000208 0.010000000000000000208 0.010000000000000000208 0.010000000000000000208 0.010000000000000000208 0.010000000000000000208 0.010000000000000000208 0.010000000000000000208 0.010000000000000000208 0.010000000000000000208 0.010000000000000000208 0.010000000000000000208 0.010000000000000000208 0.010000000000000000208 0.010000000000000000208 0.010000000000000000208 0.010000000000000000208 0.010000000000000000208 0.010000000000000000208 0.010000000000000000208 0.010000000000000000208 0.010000000000000000208 0.010000000000000000208 0.010000000000000000208 0.010000000000000000208 0.010000000000000000208 0.010257002212647600356 0.010000000000000000208 0.010000000000000000208 0.010000000000000000208 0.010000000000000000208 0.010000000000000000208 0.010000000000000000208 0.010000000000000000208 0.010000000000000000208 0.010000000000000000208 0.010000000000000000208 0.010000000000000000208 0.010000000000000000208 0.010000000000000000208 0.010000000000000000208 0.010000000000000000208 0.010000000000000000208 0.010000000000000000208 0.010000000000000000208 0.010000000000000000208 0.010000000000000000208 0.010000000000000000208 0.010000000000000000208 0.010000000000000000208 0.010000000000000000208 0.010000000000000000208 0.010000000000000000208 0.010000000000000000208 0.010000000000000000208 0.010000000000000000208 0.010000000000000000208 0.010000000000000000208 0.010000000000000000208 0.010000000000000000208 0.010000000000000000208 0.010000000000000000208 0.010000000000000000208 0.010000000000000000208 0.010000000000000000208 0.010000000000000000208 0.010000000000000000208 0.010000000000000000208 0.010000000000000000208 0.010000000000000000208 0.010000000000000000208 0.010000000000000000208 0.010000000000000000208 0.010000000000000000208 0.010000000000000000208 0.010000000000000000208 0.010000000000000000208 0.010000000000000000208 0.010000000000000000208 0.010000000000000000208 0.010000000000000000208 0.010000000000000000208 0.010000000000000000208 0.010000000000000000208 0.010000000000000000208 0.010000000000000000208 0.010000000000000000208 0.010000000000000000208 0.010000000000000000208 0.010000000000000000208 0.010000000000000000208 0.010000000000000000208 0.010000000000000000208 0.010000000000000000208 0.010000000000000000208 0.010000000000000000208 0.010000000000000000208 0.010000000000000000208 0.010000000000000000208 0.010000000000000000208 0.010000000000000000208 0.010000000000000000208 0.010000000000000000208 0.010000000000000000208 0.010000000000000000208 0.010000000000000000208 0.010000000000000000208 0.010000000000000000208 0.010000000000000000208 0.010000000000000000208 0.010000000000000000208 0.010000000000000000208 0.010000000000000000208 0.010000000000000000208 0.010000000000000000208 0.010000000000000000208 0.010000000000000000208 0.010000000000000000208 0.010000000000000000208 0.010000000000000000208 0.010000000000000000208 0.010000000000000000208 0.010000000000000000208 0.010000000000000000208 0.010000000000000000208 0.010000000000000000208 0.010000000000000000208 0.010000000000000000208 0.010000000000000000208 0.010000000000000000208 0.010000000000000000208 0.010000000000000000208 0.010000000000000000208 0.010000000000000000208 0.010000000000000000208 0.010000000000000000208 0.010000000000000000208 0.010000000000000000208 0.010000000000000000208 0.010000000000000000208 0.010000000000000000208 0.010000000000000000208 0.010000000000000000208 0.010000000000000000208 0.010000000000000000208 0.010000000000000000208 0.010000000000000000208 0.010000000000000000208 0.010000000000000000208 0.010000000000000000208 0.010000000000000000208 0.010000000000000000208 0.010000000000000000208 0.010000000000000000208 0.010000000000000000208 0.010000000000000000208 0.010000000000000000208 0.010000000000000000208 0.010000000000000000208 0.010000000000000000208 0.010000000000000000208 0.010000000000000000208 0.010000000000000000208 0.010000000000000000208 0.010000000000000000208 0.010000000000000000208 0.010000000000000000208 0.010000000000000000208 0.010000000000000000208 0.010000000000000000208 0.010000000000000000208 0.010000000000000000208 0.010000000000000000208 0.010000000000000000208 0.010000000000000000208 0.010000000000000000208 0.010000000000000000208 0.010000000000000000208 0.010000000000000000208 0.010000000000000000208 0.010000000000000000208 0.010000000000000000208 0.010000000000000000208 0.010000000000000000208 0.010000000000000000208 0.010000000000000000208 0.010000000000000000208 0.010000000000000000208 0.010000000000000000208 0.010000000000000000208 0.010000000000000000208 0.010000000000000000208 0.010000000000000000208 0.010000000000000000208 0.010000000000000000208 0.010000000000000000208 0.010000000000000000208 0.010000000000000000208 0.010000000000000000208 0.010000000000000000208 0.010000000000000000208 0.010000000000000000208 0.010000000000000000208 0.010000000000000000208 0.010000000000000000208 0.010000000000000000208 0.010000000000000000208 0.010000000000000000208 0.010000000000000000208 0.010000000000000000208 0.010000000000000000208 0.010000000000000000208 0.010000000000000000208 0.010000000000000000208 0.010000000000000000208 0.010000000000000000208 0.010000000000000000208 0.010000000000000000208 0.010000000000000000208 0.010000000000000000208 0.010000000000000000208 0.010000000000000000208 0.010000000000000000208 0.010000000000000000208 0.010000000000000000208 0.010000000000000000208 0.010000000000000000208 0.010000000000000000208 0.010000000000000000208 0.010000000000000000208 0.010000000000000000208 0.010000000000000000208 0.010000000000000000208 0.010000000000000000208 0.010000000000000000208 0.010000000000000000208 0.010000000000000000208 0.010000000000000000208 0.010000000000000000208 0.010000000000000000208 0.010000000000000000208 0.010000000000000000208 0.010000000000000000208 0.010000000000000000208 0.010000000000000000208 0.010000000000000000208 0.010000000000000000208 0.010000000000000000208 0.010000000000000000208 0.010000000000000000208 0.010000000000000000208 0.010000000000000000208 0.010000000000000000208 0.010000000000000000208 0.010000000000000000208 0.010000000000000000208 0.010000000000000000208 0.010000000000000000208 0.010000000000000000208 0.010000000000000000208 0.010000000000000000208 0.010000000000000000208 0.010000000000000000208 0.010000000000000000208 0.010000000000000000208 0.010000000000000000208 0.010000000000000000208 0.010000000000000000208 0.010000000000000000208 0.010000000000000000208 0.010000000000000000208 0.010000000000000000208 0.010000000000000000208 0.010000000000000000208 0.010000000000000000208 0.010000000000000000208 0.010000000000000000208 0.010000000000000000208 0.010000000000000000208 0.010000000000000000208 0.010000000000000000208 0.010000000000000000208 0.010000000000000000208 0.010000000000000000208 0.010000000000000000208 0.010000000000000000208 0.010000000000000000208 0.010000000000000000208 0.010000000000000000208 0.010000000000000000208 0.010000000000000000208 0.010000000000000000208 0.010000000000000000208 0.010000000000000000208 0.010000000000000000208 0.010000000000000000208 0.010000000000000000208 0.010000000000000000208 0.010000000000000000208 0.010000000000000000208 0.010000000000000000208 0.010000000000000000208 0.010000000000000000208 0.010000000000000000208 0.010000000000000000208 0.010000000000000000208 0.010000000000000000208 0.010000000000000000208 0.010000000000000000208 0.010000000000000000208 0.010000000000000000208 0.010000000000000000208 0.010000000000000000208 0.010000000000000000208 
        </DataArray>
      </CellData>
      <Points>
        <DataArray Name="m" NumberOfComponents="3" type="Float32" format="ascii">