<?xml version="1.0"?>
<VTKFile type="StructuredGrid" version="0.1" byte_order="LittleEndian">
  <StructuredGrid WholeExtent="0 32 0 32 0 1">
    <Piece Extent="0 32 0 32 0 1">
      <PointData>
      </PointData>
      <CellData>
        <DataArray Name="rho" NumberOfComponents="1" type="Float32" format="ascii">
1 1 1 1 1 1 1 1 1 1 1 1 1 1 1 1 1 1 1 1 1 1 1 1 1 1 1 1 1 1 1 1 1 1 1 1 1 1 1 1 1 1 1 1 1 1 1 1 1 1 1 1 1 1 1 1 1 1 1 1 1 1 1 1 1 1 1 1 1 1 1 1 1 1 1 1 1 1 1 1 1 1 1 1 1 1 1 1 1 1 1 1 1 1 1 1 1 1 1 1 1 1 1 1 1 1 1 1 1 1 1 1 1 1 1 1 1 1 1 1 1 1 1 1 1 1 1 1 1 1 1 1 1 1 1 1 1 1 1 1 1 1 1 1 1 1 1 1 1 1 1 1 1 1 1 1 1 1 1 1 1 1 1 1 1 1 1 1 1 1 1 1 1 1 1 1 1 1 1 1 1 1 1 1 1 1 1 1 1 1 1 1 1 1 1 1 1 1 1 1 1 1 1 1 1 1 1 1 1 1 1 1 1 1 1 1 1 1 1 1 1 1 1 1 1 1 1 1 1 1 1 1 1 1 1 1 1 1 1 1 1 1 1 1 1 1 1 1 1 1 1 1 1 1 1 1 1 1 1 1 1 1 1 1 1 1 1 1 1 1 1 1 1 1 1 1 1 1 1 1 1 1 1 1 1 1 1 1 1 1 1 1 1 1 1 1 1 1 1 1 1 1 1 1 1 1 1 1 1 1 1 1 1 1 1 1 1 1 1 1 1 1 1 1 1 1 1 1 1 1 1 1 1 1 1 1 1 1 1 1 1 1 1 1 1 1 1 1 1 1 1 1 1 1 1 1 1 1 1 1 1 1 1 1 1 1 1 1 1 1 1 1 1 1 1 1 1 1 1 1 1 1 1 1 1 1 1 1 1 1 1 1 0.99732999253128951089 0.99503092124521541617 0.99940562418475664686 1 0.99993219892353202294 1 1 1 1 1 1 1 1 1 1 1 0.99999869416536368849 0.99980301226865442299 0.99949539101451778667 0.99927321968810012276 0.99910045377549117074 0.99860327661293202262 0.9981523247218261341 0.99854394791377065754 0.99396506664382999752 0.99492690006999429109 0.99482966808323125552 0.99473225310973978353 0.99577403090815763687 0.99882687714578988203 1 0.99465998506257891076 0.94348416394383749495 0.9070909733555392318 0.97572089725211919031 0.99867564621657733959 0.99457387846529554665 0.99346497574234227113 0.99484524958544706674 0.99520575922177401118 0.99487669150055024758 0.99468367261292689463 0.99454060603760829906 0.99437184291556102167 0.99417589654586391301 0.99395912068234049119 0.99373513558034198834 0.99350138607095273002 0.99282800818230709794 0.9889613666582344198 0.98320372014579404674 0.9786882045896204696 0.97448525300992194786 0.96528298280154734012 0.95785664460262243125 0.96322071189152280724 0.87434999972892979425 0.88954487057403142103 0.88971799569116649664 0.89004844773861280238 0.91262775504158266671 0.96665094574992782572 0.99497667361949537757 0.94458408659721193601 0.65935655260707548564 0.47562052964810369593 0.77957201466644865384 0.96536139212529148423 0.90862667008674435909 0.87078937173716453035 0.88819386652479070943 0.89586102972037917613 0.89093092767820458722 0.88689835688314710982 0.88388572765870820902 0.88050749181592014025 0.87660127192962578047 0.87229299516985969731 0.86781210029596711486 0.86292710791712001761 0.85452381802503585284 0.83364417083306585621 0.80563044823613949585 0.78214374431254030107 0.75812751328625360703 0.71450943323832538656 0.68198307520067680265 0.70050942164070495455 0.25727756735486018158 0.32006728014616253608 0.32832797808745040058 0.34083117254030559362 0.46153055312837992785 0.73128346699453994351 0.96053020092634255889 0.91511203752195380279 0.49370479261154098793 0.1701055034136496058 0.40420498655167974578 0.80277624324686391866 0.51384119175541431712 0.27632621499106269081 0.31712337177347660333 0.35345193496479626605 0.33485678701568222237 0.31436910042689858447 0.29832704705958240643 0.28101715288896955691 0.26115712430312099102 0.23929756107423444389 0.21644288776935041718 0.1926265566207231994 0.16864986655125022152 0.15247639638532453632 0.14457159714497330727 0.13993820458962047404 0.13573525300992203557 0.12653298280154740008 0.11910664460262247732 0.12447071189152288107 0.036487249027459763007 0.053063209944279071673 0.054176533646912737596 0.056015790792716596558 0.10339772440843551793 0.35671101892445755688 0.87123010092243369229 0.86153232634555698688 0.43603289603679346031 0.091988141473522924696 0.18565831870536084192 0.68099912568292420012 0.50578621351954300422 0.19168001189430208808 0.07063891243256931185 0.057884111258959716761 0.052180927678204654108 0.04814835688314723916 0.045135727658708060805 0.041757491815920089184 0.037851271929625791846 0.033542995169859798898 0.029063406130603323257 0.024394989002646631782 0.019517721632679119192 0.016913766267012568523 0.016370391014517808592 0.016148219688100130809 0.015975453775491116337 0.015478276612932126075 0.015027324721825977352 0.015418947913770589264 0.038222232757862337205 0.063161904502508511849 0.082391941021923528754 0.10194624348539128855 0.1784955949233879291 0.47061410121123209427 0.83177316267579504139 0.57860201972046265695 0.18157104304666543682 0.030966021143042029434 0.097463263408360645279 0.51509941527023184182 0.75967482035888012071 0.57743427967057314731 0.15404614459202051191 0.024998865877578609063 0.012072206225969257451 0.011558672612926880127 0.011415606037608345275 0.011246842915561008902 0.011050896545863912387 0.010834120682340539141 0.010610135580342072714 0.010378997740225267415 0.010117876999179004766 0.010000000000000000208 0.010000000000000000208 0.010000000000000000208 0.010000000000000000208 0.010000000000000000208 0.010000000000000000208 0.010000000000000000208 0.27044265095899105988 0.37854742515763156741 0.47692234810126610256 0.56889457277385269141 0.70936499934284369395 0.85990628368001209569 0.7831730903567779567 0.26128659606102655477 0.043872687797289214306 0.011413068833083498191 0.024135147019502128235 0.17530620391832801852 0.54164675801199591021 0.67436851817332510439 0.24616088500369795455 0.042358406895712547025 0.011553266189401292796 0.010000000000000000208 0.010000000000000000208 0.010000000000000000208 0.010000000000000000208 0.010000000000000000208 0.010000000000000000208 0.010000000000000000208 0.010000000000000000208 0.010000000000000000208 0.010000000000000000208 0.010000000000000000208 0.010000000000000000208 0.010000000000000000208 0.010000000000000000208 0.010000000000000000208 0.86441683627320020644 0.88177394856259261324 0.87655573104070694246 0.86515280041160069757 0.86181875986352962649 0.78292104354287550549 0.45467835581388060806 0.090842248758439617107 0.01445865508434262918 0.010000000000000000208 0.010232552599177928421 0.025566030420622248842 0.11927817106310562023 0.22496090336125401654 0.072572193992865505208 0.015073433793973882097 0.010040631454347073367 0.010000000000000000208 0.010000000000000000208 0.010000000000000000208 0.010000000000000000208 0.010000000000000000208 0.010000000000000000208 0.010000000000000000208 0.010000000000000000208 0.010000000000000000208 0.010000000000000000208 0.010000000000000000208 0.010000000000000000208 0.010000000000000000208 0.010000000000000000208 0.010000000000000000208 0.82512350244969923097 0.78420730502089874836 0.66649026392850785339 0.52651270789947635098 0.39561351353903662087 0.23705077389940823474 0.091302089309273318229 0.017181125945338489996 0.010000000000000000208 0.010000000000000000208 0.010000000000000000208 0.010116276299589018958 0.016852079815400974883 0.037933888744364284429 0.014836965750192034064 0.010081262908694037239 0.010000000000000000208 0.010000000000000000208 0.010000000000000000208 0.010000000000000000208 0.010000000000000000208 0.010000000000000000208 0.010000000000000000208 0.010000000000000000208 0.010000000000000000208 0.010000000000000000208 0.010000000000000000208 0.010000000000000000208 0.010000000000000000208 0.010000000000000000208 0.010000000000000000208 0.010000000000000000208 0.17081623969248188599 0.1472728198176245229 0.11862486255422335923 0.090099858412227507021 0.065142100628508337046 0.033456527766563638748 0.014403691241602345485 0.010000000000000000208 0.010000000000000000208 0.010000000000000000208 0.010000000000000000208 0.010000000000000000208 0.010000000000000000208 0.011316798145619335475 0.010040631454347073367 0.010000000000000000208 0.010000000000000000208 0.010000000000000000208 0.010000000000000000208 0.010000000000000000208 0.010000000000000000208 0.010000000000000000208 0.010000000000000000208 0.010000000000000000208 0.010000000000000000208 0.010000000000000000208 0.010000000000000000208 0.010000000000000000208 0.010000000000000000208 0.010000000000000000208 0.010000000000000000208 0.010000000000000000208 0.021258682772284053647 0.016923818065134155209 0.015087996146775249293 0.01363175071608850944 0.012470427330630985338 0.01073838095311696085 0.010000000000000000208 0.010000000000000000208 0.010000000000000000208 0.010000000000000000208 0.010000000000000000208 0.010000000000000000208 0.010000000000000000208 0.010000000000000000208 0.010000000000000000208 0.010000000000000000208 0.010000000000000000208 0.010000000000000000208 0.010000000000000000208 0.010000000000000000208 0.010000000000000000208 0.010000000000000000208 0.010000000000000000208 0.010000000000000000208 0.010000000000000000208 0.010000000000000000208 0.010000000000000000208 0.010000000000000000208 0.010000000000000000208 0.010000000000000000208 0.010000000000000000208 0.010000000000000000208 0.010256404452208682174 0.010000000000000000208 0.010000000000000000208 0.010000000000000000208 0.010000000000000000208 0.010000000000000000208 0.010000000000000000208 0.010000000000000000208 0.010000000000000000208 0.010000000000000000208 0.010000000000000000208 0.010000000000000000208 0.010000000000000000208 0.010000000000000000208 0.010000000000000000208 0.010000000000000000208 0.010000000000000000208 0.010000000000000000208 0.010000000000000000208 0.010000000000000000208 0.010000000000000000208 0.010000000000000000208 0.010000000000000000208 0.010000000000000000208 0.010000000000000000208 0.010000000000000000208 0.010000000000000000208 0.010000000000000000208 0.010000000000000000208 0.010000000000000000208 0.010000000000000000208 0.010000000000000000208 0.010000000000000000208 0.010000000000000000208 0.010000000000000000208 0.010000000000000000208 0.010000000000000000208 0.010000000000000000208 0.010000000000000000208 0.010000000000000000208 0.010000000000000000208 0.010000000000000000208 0.010000000000000000208 0.010000000000000000208 0.010000000000000000208 0.010000000000000000208 0.010000000000000000208 0.010000000000000000208 0.010000000000000000208 0.010000000000000000208 0.010000000000000000208 0.010000000000000000208 0.010000000000000000208 0.010000000000000000208 0.010000000000000000208 0.010000000000000000208 0.010000000000000000208 0.010000000000000000208 0.010000000000000000208 0.010000000000000000208 0.010000000000000000208 0.010000000000000000208 0.010000000000000000208 0.010000000000000000208 0.010000000000000000208 0.010000000000000000208 0.010000000000000000208 0.010000000000000000208 0.010000000000000000208 0.010000000000000000208 0.010000000000000000208 0.010000000000000000208 0.010000000000000000208 0.010000000000000000208 0.010000000000000000208 0.010000000000000000208 0.010000000000000000208 0.010000000000000000208 0.010000000000000000208 0.010000000000000000208 0.010000000000000000208 0.010000000000000000208 0.010000000000000000208 0.010000000000000000208 0.010000000000000000208 0.010000000000000000208 0.010000000000000000208 0.010000000000000000208 0.010000000000000000208 0.010000000000000000208 0.010000000000000000208 0.010000000000000000208 0.010000000000000000208 0.010000000000000000208 0.010000000000000000208 0.010000000000000000208 0.010000000000000000208 0.010000000000000000208 0.010000000000000000208 0.010000000000000000208 0.010000000000000000208 0.010000000000000000208 0.010000000000000000208 0.010000000000000000208 0.010000000000000000208 0.010000000000000000208 0.010000000000000000208 0.010000000000000000208 0.010000000000000000208 0.010000000000000000208 0.010000000000000000208 0.010000000000000000208 0.010000000000000000208 0.010000000000000000208 0.010000000000000000208 0.010000000000000000208 0.010000000000000000208 0.010000000000000000208 0.010000000000000000208 0.010000000000000000208 0.010000000000000000208 0.010000000000000000208 0.010000000000000000208 0.010000000000000000208 0.010000000000000000208 0.010000000000000000208 0.010000000000000000208 0.010000000000000000208 0.010000000000000000208 0.010000000000000000208 0.010000000000000000208 0.010000000000000000208 0.010000000000000000208 0.010000000000000000208 0.010000000000000000208 0.010000000000000000208 0.010000000000000000208 0.010000000000000000208 0.010000000000000000208 0.010000000000000000208 0.010000000000000000208 0.010000000000000000208 0.010000000000000000208 0.010000000000000000208 0.010000000000000000208 0.010000000000000000208 0.010000000000000000208 0.010000000000000000208 0.010000000000000000208 0.010000000000000000208 0.010000000000000000208 0.010000000000000000208 0.010000000000000000208 0.010000000000000000208 0.010000000000000000208 0.010000000000000000208 0.010000000000000000208 0.010000000000000000208 0.010000000000000000208 0.010000000000000000208 0.010000000000000000208 0.010000000000000000208 0.010000000000000000208 0.010000000000000000208 0.010000000000000000208 0.010000000000000000208 0.010000000000000000208 0.010000000000000000208 0.010000000000000000208 0.010000000000000000208 0.010000000000000000208 0.010000000000000000208 0.010000000000000000208 0.010000000000000000208 0.010000000000000000208 0.010000000000000000208 0.010000000000000000208 0.010000000000000000208 0.010000000000000000208 0.010000000000000000208 0.010000000000000000208 0.010000000000000000208 0.010000000000000000208 0.010000000000000000208 0.010000000000000000208 0.010000000000000000208 0.010000000000000000208 0.010000000000000000208 0.010000000000000000208 0.010000000000000000208 0.010000000000000000208 0.010000000000000000208 0.010000000000000000208 0.010000000000000000208 0.010000000000000000208 0.010000000000000000208 0.010000000000000000208 0.010000000000000000208 0.010000000000000000208 0.010000000000000000208 0.010000000000000000208 0.010000000000000000208 0.010000000000000000208 0.010000000000000000208 0.010000000000000000208 0.010000000000000000208 0.010000000000000000208 0.010000000000000000208 0.010000000000000000208 0.010000000000000000208 0.010000000000000000208 0.010000000000000000208 0.010000000000000000208 0.010000000000000000208 0.010000000000000000208 0.010000000000000000208 0.010000000000000000208 0.010000000000000000208 0.010000000000000000208 0.010000000000000000208 0.010000000000000000208 0.010000000000000000208 0.010000000000000000208 0.010000000000000000208 0.010000000000000000208 0.010000000000000000208 0.010000000000000000208 0.010000000000000000208 0.010000000000000000208 0.010000000000000000208 0.010000000000000000208 0.010000000000000000208 0.010000000000000000208 0.010000000000000000208 0.010000000000000000208 0.010000000000000000208 0.010000000000000000208 0.010000000000000000208 0.010000000000000000208 0.010000000000000000208 0.010000000000000000208 0.010000000000000000208 0.010000000000000000208 0.010000000000000000208 0.010000000000000000208 0.010000000000000000208 0.010000000000000000208 0.010000000000000000208 0.010000000000000000208 0.010000000000000000208 0.010000000000000000208 0.010000000000000000208 0.010000000000000000208 0.010000000000000000208 0.010000000000000000208 0.010000000000000000208 0.010000000000000000208 0.010000000000000000208 0.010000000000000000208 0.010000000000000000208 0.010000000000000000208 0.010000000000000000208 0.010000000000000000208 0.010000000000000000208 0.010000000000000000208 0.010000000000000000208 0.010000000000000000208 0.010000000000000000208 0.010000000000000000208 0.010000000000000000208 0.010000000000000000208 0.010000000000000000208 0.010000000000000000208 0.010000000000000000208 0.010000000000000000208 0.010000000000000000208 0.010000000000000000208 0.010000000000000000208 0.010000000000000000208 0.010000000000000000208 0.010000000000000000208 0.010000000000000000208 0.010000000000000000208 0.010000000000000000208 0.010000000000000000208 0.010000000000000000208 0.010000000000000000208 0.010000000000000000208 
        </DataArray>
      </CellData>
      <Points>
        <DataArray Name="m" NumberOfComponents="3" type="Float32" format="ascii">