<?xml version="1.0"?>
<VTKFile type="StructuredGrid" version="0.1" byte_order="LittleEndian">
  <StructuredGrid WholeExtent="0 32 0 32 0 1">
    <Piece Extent="0 32 0 32 0 1">
      <PointData>
      </PointData>
      <CellData>
        <DataArray Name="rho" NumberOfComponents="1" type="Float32" format="ascii">
1 1 1 1 1 1 1 1 1 1 1 1 1 1 1 1 1 1 1 1 1 1 1 1 1 1 1 1 1 1 1 1 1 1 1 1 1 1 1 1 1 1 1 1 1 1 1 1 1 1 1 1 1 1 1 1 1 1 1 1 1 1 1 1 1 1 1 1 1 1 1 1 1 1 1 1 1 1 1 1 1 1 1 1 1 1 1 1 1 1 1 1 1 1 1 1 1 1 1 1 1 1 1 1 1 1 1 1 1 1 1 1 1 1 1 1 1 1 1 1 1 1 1 1 1 1 1 1 1 1 1 1 1 1 1 1 1 1 1 1 1 1 1 1 1 1 1 1 1 1 1 1 1 1 1 1 1 1 1 1 1 1 1 1 1 1 1 1 1 1 1 1 1 1 1 1 1 1 1 1 1 1 1 1 1 1 1 1 1 1 1 1 1 1 1 1 1 1 1 1 1 1 1 1 1 1 1 1 1 1 1 1 1 1 1 1 1 1 1 1 1 1 1 1 1 1 1 1 1 1 1 1 1 1 1 1 1 1 1 1 1 1 1 1 1 1 1 1 1 1 1 1 1 1 1 1 1 1 1 1 1 1 1 1 1 1 1 1 1 1 1 1 1 1 1 1 1 1 1 1 1 1 1 1 1 1 1 1 1 1 1 1 1 1 1 1 1 1 1 1 1 1 1 1 1 1 1 1 1 1 1 1 1 1 1 1 1 1 1 1 1 1 1 1 1 1 1 1 1 1 1 1 1 1 1 1 1 1 1 1 1 1 1 1 1 1 1 1 1 1 1 1 1 1 1 1 1 1 1 0.99937587600163158008 0.99999586768293069472 1 1 1 1 1 1 1 1 1 1 1 1 1 1 1 1 1 1 1 1 1 1 1 1 1 1 1 1 1 0.99736688993351385601 0.98362310362415550369 0.99521105762776240766 0.99999140157301313891 1 1 0.99994599520293814265 0.99999009566284124961 1 1 1 1 1 1 1 1 1 1 0.99999529062444103555 0.9997978064012549293 0.99952997898063722371 0.99936856166987708683 0.9993049450727572447 0.99903392871619356441 0.99837503682682293693 0.9989849895819679082 0.99561378723267279778 0.99704634990432283725 0.9976232686431419916 0.99774094344507691101 0.99928121444086703828 0.99660615186213286076 0.95508679505742211102 0.84125449556285369912 0.91467836596229423751 0.98966424817092146782 0.99995394009923288525 0.99717250692209569163 0.9928444386107831976 0.99392456183944433157 0.99510857033348387723 0.99494383695022936553 0.99467238056196827234 0.99453106562285809034 0.99440229966028526043 0.99426624160251853013 0.99411443469969285047 0.99393090652580418087 0.99371502361067465259 0.99346749017207580668 0.9927412903916162934 0.98894044163023608895 0.98393739983245953606 0.98069183482482280567 0.97880910193625891846 0.97302782325825920573 0.9631634258254897496 0.97160488612906803496 0.9082658699967554039 0.93234071022079412216 0.94467188498907184169 0.95078906128924878249 0.97578681229075414638 0.96810384520503622863 0.79018876478149080445 0.39364312532426043445 0.53072211480517472726 0.8745884802871538577 0.98056468632300730626 0.9412979377314228957 0.87233608761903214113 0.87635748766174081936 0.89323634548989772064 0.89181800600605032336 0.88683289413766863696 0.88377141041023710155 0.88115640901531788742 0.8784183343602537386 0.87535025145173184224 0.87167842103360348993 0.86737629929323156741 0.86235010158085989573 0.85383990327789094366 0.83384076583256716564 0.80962569551864238537 0.79287771352340463693 0.78070612693209140431 0.75116541434629835461 0.71172013164926872797 0.74177367965748730594 0.43459434456114215406 0.53992441818473579929 0.60549896299759309315 0.64965794634665241514 0.77918536282117478731 0.93205740533318259811 0.88178916874663981762 0.44752676315245737415 0.23058616837773313057 0.5556863902995562432 0.80295526890193491543 0.65534222916718654073 0.31125206408325750695 0.27789947225967243094 0.33889371290965675243 0.33734017218287959405 0.31447599805133452655 0.29814242446315797341 0.2845251077670872264 0.27045915087957717038 0.25467825290324175302 0.23594112724628407696 0.21410711500758736192 0.19007811389144943504 0.16664570584272331288 0.15207879212222583099 0.14528342743050937091 0.14194183482482272685 0.14005910193625886739 0.13427782325825909915 0.12441342582548992057 0.13285488612906809491 0.070547619789825682934 0.095717677185861937961 0.10891679494636663517 0.12148942015292472918 0.24266352002676641608 0.6944171401025792667 0.91744885978058443587 0.64958253723779657562 0.1412757167128189939 0.14839568743049047495 0.40463031788866055116 0.59987416522997216717 0.28452452550276202681 0.11409458624750658251 0.060600292807759359448 0.05307791034320921697 0.048082894137668655277 0.045021410410237161503 0.042406409015317766964 0.039668334360253992843 0.036600251451731846686 0.032928421033603556822 0.028631008668790529359 0.023877645188548263233 0.019110550039624418783 0.016864861597354546124 0.016404978980637092978 0.016243561669877049775 0.016179945072757273561 0.015908928716193593278 0.015250036826822983144 0.015859989581967902372 0.042189217438072509903 0.062750428013183395803 0.07939565721223551531 0.097494930325465190002 0.21365860831747446325 0.64504966465092228312 0.83573549573525207634 0.44551389746810260428 0.075325218237576957447 0.027874282859394784728 0.16490911080964917867 0.6159663107986675934 0.73108728174616366413 0.40912655934326441765 0.073111181975664255028 0.014548400656824986288 0.01154738056196839141 0.011406065622858176448 0.011277299660285287561 0.011141241602518631854 0.010989434699692936584 0.010805906525804310353 0.01059002361067464329 0.010351908923193651677 0.010096027598049795923 0.010000000000000000208 0.010000000000000000208 0.010000000000000000208 0.010000000000000000208 0.010000000000000000208 0.010000000000000000208 0.010000000000000000208 0.2801242841230216496 0.36614543358585832644 0.44670247414147951082 0.52639495078409348494 0.69470448075920920861 0.86570897961097803552 0.68543878681204117864 0.18527642015865994352 0.023371556120421861646 0.0110966880269533167 0.04442914035277308743 0.27821427949388860545 0.63491228664352861166 0.52489892247467984099 0.10648450522334271251 0.015316389851274996373 0.010001079400864129609 0.010000000000000000208 0.010000000000000000208 0.010000000000000000208 0.010000000000000000208 0.010000000000000000208 0.010000000000000000208 0.010000000000000000208 0.010000000000000000208 0.010000000000000000208 0.010000000000000000208 0.010000000000000000208 0.010000000000000000208 0.010000000000000000208 0.010000000000000000208 0.010000000000000000208 0.87016722340887342479 0.87421245523716595294 0.85862353609948527389 0.84655790647085082945 0.85499777670390197937 0.75199124257711036368 0.3503154543900465212 0.059866848176719431041 0.011937351714319158202 0.010000000000000000208 0.012200089705353000732 0.04726290637592057281 0.14711525737221878285 0.12750918879644948523 0.024049480884857754592 0.010196380685888828052 0.010000000000000000208 0.010000000000000000208 0.010000000000000000208 0.010000000000000000208 0.010000000000000000208 0.010000000000000000208 0.010000000000000000208 0.010000000000000000208 0.010000000000000000208 0.010000000000000000208 0.010000000000000000208 0.010000000000000000208 0.010000000000000000208 0.010000000000000000208 0.010000000000000000208 0.010000000000000000208 0.83710011101332371108 0.7588969997473085094 0.60914833804505752468 0.48152451319174055522 0.38883296599499467261 0.22841306947956621642 0.069275573261323372676 0.014188011270326809921 0.010000000000000000208 0.010000000000000000208 0.010000000000000000208 0.011576809089826599689 0.021393128348739166855 0.019059512483149840256 0.010389523169185043913 0.010000000000000000208 0.010000000000000000208 0.010000000000000000208 0.010000000000000000208 0.010000000000000000208 0.010000000000000000208 0.010000000000000000208 0.010000000000000000208 0.010000000000000000208 0.010000000000000000208 0.010000000000000000208 0.010000000000000000208 0.010000000000000000208 0.010000000000000000208 0.010000000000000000208 0.010000000000000000208 0.010000000000000000208 0.16472502892983187373 0.14029169046984860114 0.10636781302107085889 0.080796386270119216477 0.064798009912977044822 0.032429565504685370358 0.013048967747532164499 0.010000000000000000208 0.010000000000000000208 0.010000000000000000208 0.010000000000000000208 0.010000000000000000208 0.010326421449566972749 0.010194221884160567515 0.010000000000000000208 0.010000000000000000208 0.010000000000000000208 0.010000000000000000208 0.010000000000000000208 0.010000000000000000208 0.010000000000000000208 0.010000000000000000208 0.010000000000000000208 0.010000000000000000208 0.010000000000000000208 0.010000000000000000208 0.010000000000000000208 0.010000000000000000208 0.010000000000000000208 0.010000000000000000208 0.010000000000000000208 0.010000000000000000208 0.019419288390373986436 0.01643460881439192528 0.014424656341730160772 0.01312704519832085838 0.012519675206762866451 0.010677058104065507635 0.010000000000000000208 0.010000000000000000208 0.010000000000000000208 0.010000000000000000208 0.010000000000000000208 0.010000000000000000208 0.010000000000000000208 0.010000000000000000208 0.010000000000000000208 0.010000000000000000208 0.010000000000000000208 0.010000000000000000208 0.010000000000000000208 0.010000000000000000208 0.010000000000000000208 0.010000000000000000208 0.010000000000000000208 0.010000000000000000208 0.010000000000000000208 0.010000000000000000208 0.010000000000000000208 0.010000000000000000208 0.010000000000000000208 0.010000000000000000208 0.010000000000000000208 0.010000000000000000208 0.010141665490679048836 0.010000000000000000208 0.010000000000000000208 0.010000000000000000208 0.010000000000000000208 0.010000000000000000208 0.010000000000000000208 0.010000000000000000208 0.010000000000000000208 0.010000000000000000208 0.010000000000000000208 0.010000000000000000208 0.010000000000000000208 0.010000000000000000208 0.010000000000000000208 0.010000000000000000208 0.010000000000000000208 0.010000000000000000208 0.010000000000000000208 0.010000000000000000208 0.010000000000000000208 0.010000000000000000208 0.010000000000000000208 0.010000000000000000208 0.010000000000000000208 0.010000000000000000208 0.010000000000000000208 0.010000000000000000208 0.010000000000000000208 0.010000000000000000208 0.010000000000000000208 0.010000000000000000208 0.010000000000000000208 0.010000000000000000208 0.010000000000000000208 0.010000000000000000208 0.010000000000000000208 0.010000000000000000208 0.010000000000000000208 0.010000000000000000208 0.010000000000000000208 0.010000000000000000208 0.010000000000000000208 0.010000000000000000208 0.010000000000000000208 0.010000000000000000208 0.010000000000000000208 0.010000000000000000208 0.010000000000000000208 0.010000000000000000208 0.010000000000000000208 0.010000000000000000208 0.010000000000000000208 0.010000000000000000208 0.010000000000000000208 0.010000000000000000208 0.010000000000000000208 0.010000000000000000208 0.010000000000000000208 0.010000000000000000208 0.010000000000000000208 0.010000000000000000208 0.010000000000000000208 0.010000000000000000208 0.010000000000000000208 0.010000000000000000208 0.010000000000000000208 0.010000000000000000208 0.010000000000000000208 0.010000000000000000208 0.010000000000000000208 0.010000000000000000208 0.010000000000000000208 0.010000000000000000208 0.010000000000000000208 0.010000000000000000208 0.010000000000000000208 0.010000000000000000208 0.010000000000000000208 0.010000000000000000208 0.010000000000000000208 0.010000000000000000208 0.010000000000000000208 0.010000000000000000208 0.010000000000000000208 0.010000000000000000208 0.010000000000000000208 0.010000000000000000208 0.010000000000000000208 0.010000000000000000208 0.010000000000000000208 0.010000000000000000208 0.010000000000000000208 0.010000000000000000208 0.010000000000000000208 0.010000000000000000208 0.010000000000000000208 0.010000000000000000208 0.010000000000000000208 0.010000000000000000208 0.010000000000000000208 0.010000000000000000208 0.010000000000000000208 0.010000000000000000208 0.010000000000000000208 0.010000000000000000208 0.010000000000000000208 0.010000000000000000208 0.010000000000000000208 0.010000000000000000208 0.010000000000000000208 0.010000000000000000208 0.010000000000000000208 0.010000000000000000208 0.010000000000000000208 0.010000000000000000208 0.010000000000000000208 0.010000000000000000208 0.010000000000000000208 0.010000000000000000208 0.010000000000000000208 0.010000000000000000208 0.010000000000000000208 0.010000000000000000208 0.010000000000000000208 0.010000000000000000208 0.010000000000000000208 0.010000000000000000208 0.010000000000000000208 0.010000000000000000208 0.010000000000000000208 0.010000000000000000208 0.010000000000000000208 0.010000000000000000208 0.010000000000000000208 0.010000000000000000208 0.010000000000000000208 0.010000000000000000208 0.010000000000000000208 0.010000000000000000208 0.010000000000000000208 0.010000000000000000208 0.010000000000000000208 0.010000000000000000208 0.010000000000000000208 0.010000000000000000208 0.010000000000000000208 0.010000000000000000208 0.010000000000000000208 0.010000000000000000208 0.010000000000000000208 0.010000000000000000208 0.010000000000000000208 0.010000000000000000208 0.010000000000000000208 0.010000000000000000208 0.010000000000000000208 0.010000000000000000208 0.010000000000000000208 0.010000000000000000208 0.010000000000000000208 0.010000000000000000208 0.010000000000000000208 0.010000000000000000208 0.010000000000000000208 0.010000000000000000208 0.010000000000000000208 0.010000000000000000208 0.010000000000000000208 0.010000000000000000208 0.010000000000000000208 0.010000000000000000208 0.010000000000000000208 0.010000000000000000208 0.010000000000000000208 0.010000000000000000208 0.010000000000000000208 0.010000000000000000208 0.010000000000000000208 0.010000000000000000208 0.010000000000000000208 0.010000000000000000208 0.010000000000000000208 0.010000000000000000208 0.010000000000000000208 0.010000000000000000208 0.010000000000000000208 0.010000000000000000208 0.010000000000000000208 0.010000000000000000208 0.010000000000000000208 0.010000000000000000208 0.010000000000000000208 0.010000000000000000208 0.010000000000000000208 0.010000000000000000208 0.010000000000000000208 0.010000000000000000208 0.010000000000000000208 0.010000000000000000208 0.010000000000000000208 0.010000000000000000208 0.010000000000000000208 0.010000000000000000208 0.010000000000000000208 0.010000000000000000208 0.010000000000000000208 0.010000000000000000208 0.010000000000000000208 0.010000000000000000208 0.010000000000000000208 0.010000000000000000208 0.010000000000000000208 0.010000000000000000208 0.010000000000000000208 0.010000000000000000208 0.010000000000000000208 0.010000000000000000208 0.010000000000000000208 0.010000000000000000208 0.010000000000000000208 0.010000000000000000208 0.010000000000000000208 0.010000000000000000208 0.010000000000000000208 0.010000000000000000208 0.010000000000000000208 0.010000000000000000208 0.010000000000000000208 0.010000000000000000208 0.010000000000000000208 0.010000000000000000208 0.010000000000000000208 0.010000000000000000208 0.010000000000000000208 0.010000000000000000208 0.010000000000000000208 0.010000000000000000208 0.010000000000000000208 0.010000000000000000208 0.010000000000000000208 0.010000000000000000208 0.010000000000000000208 0.010000000000000000208 0.010000000000000000208 0.010000000000000000208 0.010000000000000000208 0.010000000000000000208 0.010000000000000000208 0.010000000000000000208 0.010000000000000000208 0.010000000000000000208 0.010000000000000000208 0.010000000000000000208 0.010000000000000000208 0.010000000000000000208 0.010000000000000000208 0.010000000000000000208 0.010000000000000000208 0.010000000000000000208 0.010000000000000000208 0.010000000000000000208 0.010000000000000000208 0.010000000000000000208 0.010000000000000000208 0.010000000000000000208 0.010000000000000000208 0.010000000000000000208 0.010000000000000000208 0.010000000000000000208 0.010000000000000000208 0.010000000000000000208 0.010000000000000000208 0.010000000000000000208 0.010000000000000000208 0.010000000000000000208 0.010000000000000000208 0.010000000000000000208 0.010000000000000000208 0.010000000000000000208 0.010000000000000000208 0.010000000000000000208 0.010000000000000000208 0.010000000000000000208 0.010000000000000000208 0.010000000000000000208 0.010000000000000000208 0.010000000000000000208 
        </DataArray>
      </CellData>
      <Points>
        <DataArray Name="m" NumberOfComponents="3" type="Float32" format="ascii">