<?xml version="1.0"?>
<VTKFile type="StructuredGrid" version="0.1" byte_order="LittleEndian">
  <StructuredGrid WholeExtent="0 32 0 32 0 1">
    <Piece Extent="0 32 0 32 0 1">
      <PointData>
      </PointData>
      <CellData>
        <DataArray Name="rho" NumberOfComponents="1" type="Float32" format="ascii">
1 1 1 1 1 1 1 1 1 1 1 1 1 1 1 1 1 1 1 1 1 1 1 1 1 1 1 1 1 1 1 1 1 1 1 1 1 1 1 1 1 1 1 1 1 1 1 1 1 1 1 1 1 1 1 1 1 1 1 1 1 1 1 1 1 1 1 1 1 1 1 1 1 1 1 1 1 1 1 1 1 1 1 1 1 1 1 1 1 1 1 1 1 1 1 1 1 1 1 1 1 1 1 1 1 1 1 1 1 1 1 1 1 1 1 1 1 1 1 1 1 1 1 1 1 1 1 1 1 1 1 1 1 1 1 1 1 1 1 1 1 1 1 1 1 1 1 1 1 1 1 1 1 1 1 1 1 1 1 1 1 1 1 1 1 1 1 1 1 1 1 1 1 1 1 1 1 1 1 1 1 1 1 1 1 1 1 1 1 1 1 1 1 1 1 1 1 1 1 1 1 1 1 1 1 1 1 1 1 1 1 1 1 1 1 1 1 1 1 1 1 1 1 1 1 1 1 1 1 1 1 1 1 1 1 1 1 1 1 1 1 1 1 1 1 1 1 1 1 1 1 1 1 1 1 1 1 1 1 1 1 1 1 1 1 1 1 1 1 1 1 1 1 1 1 1 1 1 1 1 1 1 1 1 1 1 1 1 1 1 1 1 1 1 1 1 1 1 1 1 1 1 1 1 1 1 1 1 1 1 1 1 1 1 1 1 1 1 1 1 1 1 1 1 1 1 1 1 1 1 1 1 1 1 1 1 1 1 1 1 1 1 1 1 1 1 1 1 1 1 1 1 1 1 1 1 1 1 1 1 1 1 1 1 1 1 1 1 1 1 1 1 1 1 1 1 1 1 1 1 1 1 1 1 1 1 1 1 1 1 1 1 1 1 1 1 1 1 1 1 1 1 1 1 1 1 1 1 1 1 1 1 1 1 1 1 0.99726701391205985203 0.99493196698768782138 0.99528517919741865683 0.9954043098034824899 0.99569246789595633462 0.99594249041776850007 0.99617698508539731517 0.9963813460791234311 0.99656438679297965066 0.99671734417165780417 0.9968246002061864619 0.99689505779560039223 0.99695249616925996072 0.99701587954315118445 0.99708296011135078007 0.99713117763772785018 0.99714404043259252663 0.99713056577178760254 0.99711126381528836227 0.99709195132092465208 0.99705873100434527778 0.99699781427614453388 0.99690552912805174834 0.99678102005405855301 0.9966289674948367594 0.99647254997948087052 0.99631872184135461534 0.9961385404416509548 0.99586942424208058089 0.99518777466634533724 0.99514663032995420711 0.99682617322802469229 0.93379518439245312589 0.89714085802196219532 0.89836042074103916732 0.90154925104246919076 0.90689808677780381352 0.91194375264700366923 0.91660443436014105156 0.92070928102272986404 0.92435256918923780489 0.92738048074485757155 0.92954340723350048492 0.9310001174804997115 0.9321868133856623384 0.9334499852516403573 0.93474647614337025292 0.93567784329153180778 0.93595313374051181121 0.9357246608443634539 0.9353502552300372308 0.93493621077406152686 0.93424422726366285197 0.9330185486831059638 0.93117113470923296159 0.92869031411071256699 0.9256956199844665889 0.92258117834407726843 0.91944673030393808677 0.91571793923328570486 0.9096884180892812477 0.89816150380559467425 0.89949898106800674213 0.92628937876435246679 0.5351827866011401591 0.38450516862997047296 0.37335709589120980034 0.38995837619022033493 0.41641556455817269056 0.44141125199252395639 0.46509822444622517246 0.48607831802385559339 0.50458393122670408548 0.51990459953411527483 0.53101312845905379589 0.53865569582278105543 0.54487729724723898972 0.55129834485738005156 0.55771573906776827911 0.56232353338352369931 0.56380186789517983126 0.56281146940630399911 0.56095398435993815145 0.55872598698494524427 0.55507175079192538902 0.5487775042711608986 0.53935002848994451075 0.52675667389781710703 0.511676161154935083 0.4958409884794731104 0.47957392368714280018 0.45971641201305407654 0.42743224236072596689 0.3776152641337137128 0.39051462621690857802 0.50170404142963875849 0.095565912837788355438 0.060396514318350219552 0.064739489759778057199 0.076138080850778305786 0.08673835104764490711 0.078815719050509880361 0.078135340589355326002 0.081959281022729937871 0.085602569189237656677 0.088630480744857603748 0.090793407233500503239 0.092250117480499826961 0.09343681338566231509 0.094699985251640347861 0.095996476143370257361 0.096927843291531770586 0.097203133740511996064 0.096974660844363527734 0.096600255230037457288 0.096186210774061517426 0.095494227263662703753 0.094268548683106134778 0.092421134709232952154 0.089940314110712557549 0.086945619984466648855 0.083831178344077286746 0.080696730303938174478 0.0769679392332857093 0.070938418089281224388 0.059411503805594720329 0.060748981068006711881 0.087539378764352554496 0.03440143852086711973 0.061101566696170478421 0.11418598088576396854 0.18340308624317536168 0.2036915104266656118 0.11321036701530592938 0.029927203253730244592 0.013818158537552369461 0.013439386792979663918 0.013592344171657813959 0.013699600206186475157 0.013770057795600382927 0.01382749616925989071 0.013890879543151225459 0.013957960111350767307 0.014006177637727832211 0.014019040432592635298 0.014005565771787598442 0.013986263815288299192 0.013966951320924639313 0.013933731004345252871 0.013872814276144488158 0.013780529128051588125 0.013656020054058474328 0.013503967494836743163 0.013347549979480861221 0.0131937218413546338 0.013013540441650995813 0.012744424242080536896 0.01206277466634539039 0.012021630329954152705 0.013701173228024591047 0.23647788331667143891 0.37716614547720600514 0.60480548355189989174 0.80643024344666447423 0.81315070807188538637 0.55705795295484905605 0.17026329124397276971 0.025157156699950750101 0.010280906229214296227 0.010000000000000000208 0.010000000000000000208 0.010000000000000000208 0.010000000000000000208 0.010000000000000000208 0.010000000000000000208 0.010000000000000000208 0.010000000000000000208 0.010000000000000000208 0.010000000000000000208 0.010000000000000000208 0.010000000000000000208 0.010000000000000000208 0.010000000000000000208 0.010000000000000000208 0.010000000000000000208 0.010000000000000000208 0.010000000000000000208 0.010000000000000000208 0.010000000000000000208 0.010000000000000000208 0.010000000000000000208 0.010000000000000000208 0.85669726948968005775 0.86949599211246952901 0.88202323825894624054 0.91620873903231236923 0.94565083746678757493 0.83771552655807335341 0.39156079692345163723 0.071487548729720629126 0.013212125124815418328 0.010000000000000000208 0.010000000000000000208 0.010000000000000000208 0.010000000000000000208 0.010000000000000000208 0.010000000000000000208 0.010000000000000000208 0.010000000000000000208 0.010000000000000000208 0.010000000000000000208 0.010000000000000000208 0.010000000000000000208 0.010000000000000000208 0.010000000000000000208 0.010000000000000000208 0.010000000000000000208 0.010000000000000000208 0.010000000000000000208 0.010000000000000000208 0.010000000000000000208 0.010000000000000000208 0.010000000000000000208 0.010000000000000000208 0.81824602281233471679 0.7332607537616072646 0.58059006756974362862 0.54835576982130163071 0.67828037064447566085 0.6658665238719567725 0.2675827642546217966 0.043696174948005941929 0.011328367137122411293 0.010000000000000000208 0.010000000000000000208 0.010000000000000000208 0.010000000000000000208 0.010000000000000000208 0.010000000000000000208 0.010000000000000000208 0.010000000000000000208 0.010000000000000000208 0.010000000000000000208 0.010000000000000000208 0.010000000000000000208 0.010000000000000000208 0.010000000000000000208 0.010000000000000000208 0.010000000000000000208 0.010000000000000000208 0.010000000000000000208 0.010000000000000000208 0.010000000000000000208 0.010000000000000000208 0.010000000000000000208 0.010000000000000000208 0.17691570963189587329 0.13875529709128625599 0.098702277552068132249 0.0903962107157747774 0.12330867705466276585 0.13127583356935029757 0.047595881817033919292 0.012725095617333787024 0.010000000000000000208 0.010000000000000000208 0.010000000000000000208 0.010000000000000000208 0.010000000000000000208 0.010000000000000000208 0.010000000000000000208 0.010000000000000000208 0.010000000000000000208 0.010000000000000000208 0.010000000000000000208 0.010000000000000000208 0.010000000000000000208 0.010000000000000000208 0.010000000000000000208 0.010000000000000000208 0.010000000000000000208 0.010000000000000000208 0.010000000000000000208 0.010000000000000000208 0.010000000000000000208 0.010000000000000000208 0.010000000000000000208 0.010000000000000000208 0.022725953900291386706 0.0166108600702514278 0.013922923133352884534 0.013425017700725691908 0.015540082633362714906 0.017111831993843293342 0.01146508982330056263 0.010000000000000000208 0.010000000000000000208 0.010000000000000000208 0.010000000000000000208 0.010000000000000000208 0.010000000000000000208 0.010000000000000000208 0.010000000000000000208 0.010000000000000000208 0.010000000000000000208 0.010000000000000000208 0.010000000000000000208 0.010000000000000000208 0.010000000000000000208 0.010000000000000000208 0.010000000000000000208 0.010000000000000000208 0.010000000000000000208 0.010000000000000000208 0.010000000000000000208 0.010000000000000000208 0.010000000000000000208 0.010000000000000000208 0.010000000000000000208 0.010000000000000000208 0.010337082707843633575 0.010000000000000000208 0.010000000000000000208 0.010000000000000000208 0.010000000000000000208 0.010068361343089186899 0.010000000000000000208 0.010000000000000000208 0.010000000000000000208 0.010000000000000000208 0.010000000000000000208 0.010000000000000000208 0.010000000000000000208 0.010000000000000000208 0.010000000000000000208 0.010000000000000000208 0.010000000000000000208 0.010000000000000000208 0.010000000000000000208 0.010000000000000000208 0.010000000000000000208 0.010000000000000000208 0.010000000000000000208 0.010000000000000000208 0.010000000000000000208 0.010000000000000000208 0.010000000000000000208 0.010000000000000000208 0.010000000000000000208 0.010000000000000000208 0.010000000000000000208 0.010000000000000000208 0.010000000000000000208 0.010000000000000000208 0.010000000000000000208 0.010000000000000000208 0.010000000000000000208 0.010000000000000000208 0.010000000000000000208 0.010000000000000000208 0.010000000000000000208 0.010000000000000000208 0.010000000000000000208 0.010000000000000000208 0.010000000000000000208 0.010000000000000000208 0.010000000000000000208 0.010000000000000000208 0.010000000000000000208 0.010000000000000000208 0.010000000000000000208 0.010000000000000000208 0.010000000000000000208 0.010000000000000000208 0.010000000000000000208 0.010000000000000000208 0.010000000000000000208 0.010000000000000000208 0.010000000000000000208 0.010000000000000000208 0.010000000000000000208 0.010000000000000000208 0.010000000000000000208 0.010000000000000000208 0.010000000000000000208 0.010000000000000000208 0.010000000000000000208 0.010000000000000000208 0.010000000000000000208 0.010000000000000000208 0.010000000000000000208 0.010000000000000000208 0.010000000000000000208 0.010000000000000000208 0.010000000000000000208 0.010000000000000000208 0.010000000000000000208 0.010000000000000000208 0.010000000000000000208 0.010000000000000000208 0.010000000000000000208 0.010000000000000000208 0.010000000000000000208 0.010000000000000000208 0.010000000000000000208 0.010000000000000000208 0.010000000000000000208 0.010000000000000000208 0.010000000000000000208 0.010000000000000000208 0.010000000000000000208 0.010000000000000000208 0.010000000000000000208 0.010000000000000000208 0.010000000000000000208 0.010000000000000000208 0.010000000000000000208 0.010000000000000000208 0.010000000000000000208 0.010000000000000000208 0.010000000000000000208 0.010000000000000000208 0.010000000000000000208 0.010000000000000000208 0.010000000000000000208 0.010000000000000000208 0.010000000000000000208 0.010000000000000000208 0.010000000000000000208 0.010000000000000000208 0.010000000000000000208 0.010000000000000000208 0.010000000000000000208 0.010000000000000000208 0.010000000000000000208 0.010000000000000000208 0.010000000000000000208 0.010000000000000000208 0.010000000000000000208 0.010000000000000000208 0.010000000000000000208 0.010000000000000000208 0.010000000000000000208 0.010000000000000000208 0.010000000000000000208 0.010000000000000000208 0.010000000000000000208 0.010000000000000000208 0.010000000000000000208 0.010000000000000000208 0.010000000000000000208 0.010000000000000000208 0.010000000000000000208 0.010000000000000000208 0.010000000000000000208 0.010000000000000000208 0.010000000000000000208 0.010000000000000000208 0.010000000000000000208 0.010000000000000000208 0.010000000000000000208 0.010000000000000000208 0.010000000000000000208 0.010000000000000000208 0.010000000000000000208 0.010000000000000000208 0.010000000000000000208 0.010000000000000000208 0.010000000000000000208 0.010000000000000000208 0.010000000000000000208 0.010000000000000000208 0.010000000000000000208 0.010000000000000000208 0.010000000000000000208 0.010000000000000000208 0.010000000000000000208 0.010000000000000000208 0.010000000000000000208 0.010000000000000000208 0.010000000000000000208 0.010000000000000000208 0.010000000000000000208 0.010000000000000000208 0.010000000000000000208 0.010000000000000000208 0.010000000000000000208 0.010000000000000000208 0.010000000000000000208 0.010000000000000000208 0.010000000000000000208 0.010000000000000000208 0.010000000000000000208 0.010000000000000000208 0.010000000000000000208 0.010000000000000000208 0.010000000000000000208 0.010000000000000000208 0.010000000000000000208 0.010000000000000000208 0.010000000000000000208 0.010000000000000000208 0.010000000000000000208 0.010000000000000000208 0.010000000000000000208 0.010000000000000000208 0.010000000000000000208 0.010000000000000000208 0.010000000000000000208 0.010000000000000000208 0.010000000000000000208 0.010000000000000000208 0.010000000000000000208 0.010000000000000000208 0.010000000000000000208 0.010000000000000000208 0.010000000000000000208 0.010000000000000000208 0.010000000000000000208 0.010000000000000000208 0.010000000000000000208 0.010000000000000000208 0.010000000000000000208 0.010000000000000000208 0.010000000000000000208 0.010000000000000000208 0.010000000000000000208 0.010000000000000000208 0.010000000000000000208 0.010000000000000000208 0.010000000000000000208 0.010000000000000000208 0.010000000000000000208 0.010000000000000000208 0.010000000000000000208 0.010000000000000000208 0.010000000000000000208 0.010000000000000000208 0.010000000000000000208 0.010000000000000000208 0.010000000000000000208 0.010000000000000000208 0.010000000000000000208 0.010000000000000000208 0.010000000000000000208 0.010000000000000000208 0.010000000000000000208 0.010000000000000000208 0.010000000000000000208 0.010000000000000000208 0.010000000000000000208 0.010000000000000000208 0.010000000000000000208 0.010000000000000000208 0.010000000000000000208 0.010000000000000000208 0.010000000000000000208 0.010000000000000000208 0.010000000000000000208 0.010000000000000000208 0.010000000000000000208 0.010000000000000000208 0.010000000000000000208 0.010000000000000000208 0.010000000000000000208 0.010000000000000000208 0.010000000000000000208 0.010000000000000000208 0.010000000000000000208 0.010000000000000000208 0.010000000000000000208 0.010000000000000000208 0.010000000000000000208 0.010000000000000000208 0.010000000000000000208 0.010000000000000000208 0.010000000000000000208 0.010000000000000000208 0.010000000000000000208 0.010000000000000000208 0.010000000000000000208 0.010000000000000000208 0.010000000000000000208 0.010000000000000000208 0.010000000000000000208 0.010000000000000000208 0.010000000000000000208 0.010000000000000000208 0.010000000000000000208 0.010000000000000000208 0.010000000000000000208 0.010000000000000000208 0.010000000000000000208 0.010000000000000000208 0.010000000000000000208 0.010000000000000000208 0.010000000000000000208 0.010000000000000000208 0.010000000000000000208 0.010000000000000000208 0.010000000000000000208 0.010000000000000000208 0.010000000000000000208 0.010000000000000000208 0.010000000000000000208 0.010000000000000000208 0.010000000000000000208 0.010000000000000000208 
        </DataArray>
      </CellData>
      <Points>
        <DataArray Name="m" NumberOfComponents="3" type="Float32" format="ascii">