<?xml version="1.0"?>
<VTKFile type="StructuredGrid" version="0.1" byte_order="LittleEndian">
  <StructuredGrid WholeExtent="0 32 0 32 0 1">
    <Piece Extent="0 32 0 32 0 1">
      <PointData>
      </PointData>
      <CellData>
        <DataArray Name="rho" NumberOfComponents="1" type="Float32" format="ascii">
1 1 1 1 1 1 1 1 1 1 1 1 1 1 1 1 1 1 1 1 1 1 1 1 1 1 1 1 1 1 1 1 1 1 1 1 1 1 1 1 1 1 1 1 1 1 1 1 1 1 1 1 1 1 1 1 1 1 1 1 1 1 1 1 1 1 1 1 1 1 1 1 1 1 1 1 1 1 1 1 1 1 1 1 1 1 1 1 1 1 1 1 1 1 1 1 1 1 1 1 1 1 1 1 1 1 1 1 1 1 1 1 1 1 1 1 1 1 1 1 1 1 1 1 1 1 1 1 1 1 1 1 1 1 1 1 1 1 1 1 1 1 1 1 1 1 1 1 1 1 1 1 1 1 1 1 1 1 1 1 1 1 1 1 1 1 1 1 1 1 1 1 1 1 1 1 1 1 1 1 1 1 1 1 1 1 1 1 1 1 1 1 1 1 1 1 1 1 1 1 1 1 1 1 1 1 1 1 1 1 1 1 1 1 1 1 1 1 1 1 1 1 1 1 1 1 1 1 1 1 1 1 1 1 1 1 1 1 1 1 1 1 1 1 1 1 1 1 1 1 1 1 1 1 1 1 1 1 1 1 1 1 1 1 1 1 1 1 1 1 1 1 1 1 1 1 1 1 1 1 1 1 1 1 1 1 1 1 1 1 1 1 1 1 1 1 1 1 1 1 1 1 1 1 1 1 1 1 1 1 1 1 1 1 1 1 1 1 1 1 1 1 1 1 1 1 1 1 1 1 1 1 1 1 1 1 1 1 1 1 1 1 1 1 1 1 1 1 1 1 1 1 1 1 1 1 1 1 1 1 1 1 1 1 1 1 1 1 1 1 1 1 1 1 1 1 1 1 1 1 1 1 1 1 1 1 1 1 1 1 1 1 0.99710528978981094461 0.99498093332287262935 0.99940894972409655139 1 0.99990177758598830504 0.99999949773059859659 1 1 1 1 1 1 1 1 1 1 0.99998714842277514059 0.99978181704648516614 0.99953597991243214871 0.99938954712524052937 0.99931075329805885143 0.99895686841822262103 0.99857887644730025656 0.99884673925525779836 0.9941851592000108262 0.99534215055193175914 0.99510988138784439716 0.99481539425474485583 0.99576221698620981382 0.99880279791228843145 1 0.99421057957962188922 0.93971843179350722508 0.90584841219377765231 0.9756769405109212423 0.9986214416610927902 0.99393425494497877892 0.99325489467610728056 0.99460357357536155476 0.99497595274160854917 0.99466113006327727675 0.99446941120974552408 0.99433218340291262827 0.99417281432144499753 0.99399000631333345179 0.99379156199543894346 0.99359177512346463779 0.99336553644283620557 0.99253806364000896068 0.98868032941417671733 0.98404340694236469567 0.98105122042482995059 0.97878988385586818133 0.97221415418228129823 0.9659942385037647572 0.96952405948924125223 0.87914216670405831433 0.8971894900066172962 0.89519819181886339798 0.89191550482402615074 0.91255685611342418628 0.96618750949025111741 0.99469147739452212775 0.94080354030481083694 0.64221412865367599743 0.46854391175869580799 0.77879128073353742767 0.9644901936786319796 0.90394718008596008918 0.86724324693009391396 0.88356264821452068503 0.89127115795122024977 0.88659380891514394385 0.88262220628830678759 0.87972438550898124365 0.87653440857561193411 0.87289385364710259108 0.86895355480061808873 0.86494615358365944946 0.86050468517966571813 0.85220950112165749779 0.83265826921481855827 0.81011136251382642737 0.79440062134891709089 0.78041372932314578836 0.74916241474538691758 0.72200381374542055291 0.73354886546398345715 0.28310481357159267279 0.35661244039179346155 0.35556502746646412305 0.35117033177173823111 0.4618433289650799578 0.72851166093801800194 0.95973854843070882659 0.91379151908708289298 0.48624828765069483261 0.16791002044369401913 0.40399896334374485463 0.79894942068561647375 0.50209272570676088954 0.2607513236598963946 0.29451405077515507847 0.33016990429275377972 0.31264442904159461811 0.29258674478478052805 0.27714021627370943879 0.26079238252337977322 0.24229940890319259794 0.22232377259734384389 0.20196059497516494208 0.18146942995405429544 0.1622033427566842434 0.15107744553364410578 0.14534846172500132111 0.1423012204248297885 0.14003988385586815801 0.13346415418228124716 0.12724423850376476164 0.13077405948924114565 0.041300879320493165403 0.060746141769634505458 0.059676668799456746017 0.057811197281762205513 0.10211110714538385036 0.35023302840111886214 0.86909849756277457455 0.86401990824263374957 0.43958814631331638578 0.09281549809129982509 0.18457958222136219839 0.67572992566368361711 0.50921394479608761419 0.19299471869350631748 0.06698075925113015916 0.053359273993132672054 0.047843808915143955229 0.043872206288306646316 0.040974385508981289727 0.037784408575611896919 0.034143853647102657967 0.030203554800618134801 0.026209005160884361885 0.022178493368778348649 0.018275504139528539471 0.016766926611757805576 0.016410979912432094308 0.016264547125240454151 0.016185753298058810912 0.015831868418222642958 0.015453876447300297567 0.0157217392552577509 0.038905289821871122391 0.064272957954262521785 0.083033583676412683894 0.10152768611925959419 0.1750968674785442214 0.46014359970025753288 0.8294147600569194978 0.58574167023015355493 0.18584995206521773281 0.031570000494459724005 0.096645847139826296379 0.51068585197089622074 0.76074639167427426933 0.58372622873328927628 0.15650290192050514415 0.02518684403113855691 0.011879359751306155235 0.011344411209745476621 0.011207183402912440293 0.011047814321445050684 0.010865006313333397392 0.010666561995438783236 0.010466775123464708286 0.010266239597285906418 0.010055054782636298552 0.010000000000000000208 0.010000000000000000208 0.010000000000000000208 0.010000000000000000208 0.010000000000000000208 0.010000000000000000208 0.010000000000000000208 0.27291732294440440576 0.3818189342645965656 0.47857387364366527072 0.56700016966922495154 0.70411837619689054968 0.85680468362668416038 0.7865233357411124393 0.26723160210203450449 0.045493240388845924971 0.011508290304332310233 0.023718750698841460645 0.17223961893599398776 0.53626144122557239946 0.67235481119008844164 0.24505499164197674933 0.042111964321669241584 0.01153643366276160126 0.010000000000000000208 0.010000000000000000208 0.010000000000000000208 0.010000000000000000208 0.010000000000000000208 0.010000000000000000208 0.010000000000000000208 0.010000000000000000208 0.010000000000000000208 0.010000000000000000208 0.010000000000000000208 0.010000000000000000208 0.010000000000000000208 0.010000000000000000208 0.010000000000000000208 0.86488841396386750837 0.88246890696885349481 0.87699984285091847624 0.86512012363003298887 0.86167641329349242696 0.78622866305267380405 0.46297455001386156326 0.093691481410684562814 0.014711962292094376767 0.010000000000000000208 0.010200092151561722387 0.025033058622607420873 0.11671729094145104344 0.21897670798838936301 0.070558291405957970777 0.014857587620589472396 0.010034419449427983695 0.010000000000000000208 0.010000000000000000208 0.010000000000000000208 0.010000000000000000208 0.010000000000000000208 0.010000000000000000208 0.010000000000000000208 0.010000000000000000208 0.010000000000000000208 0.010000000000000000208 0.010000000000000000208 0.010000000000000000208 0.010000000000000000208 0.010000000000000000208 0.010000000000000000208 0.82519237926564159569 0.78428773459632650233 0.66700537939071813387 0.52811412174493532756 0.39829213031623222907 0.23999682633028535106 0.093609922846063078894 0.017488081863811053007 0.010000000000000000208 0.010000000000000000208 0.010000000000000000208 0.010100046075780806654 0.016612779382676676199 0.036586712008928212736 0.014555163062046730035 0.010068838898855857894 0.010000000000000000208 0.010000000000000000208 0.010000000000000000208 0.010000000000000000208 0.010000000000000000208 0.010000000000000000208 0.010000000000000000208 0.010000000000000000208 0.010000000000000000208 0.010000000000000000208 0.010000000000000000208 0.010000000000000000208 0.010000000000000000208 0.010000000000000000208 0.010000000000000000208 0.010000000000000000208 0.17087446411549506164 0.14728213659241795597 0.11870814274034396929 0.090416516038654276555 0.065700382846811872239 0.033986342409007198884 0.014570260936042167196 0.010000000000000000208 0.010000000000000000208 0.010000000000000000208 0.010000000000000000208 0.010000000000000000208 0.010000000000000000208 0.011234009104218858899 0.010034419449427983695 0.010000000000000000208 0.010000000000000000208 0.010000000000000000208 0.010000000000000000208 0.010000000000000000208 0.010000000000000000208 0.010000000000000000208 0.010000000000000000208 0.010000000000000000208 0.010000000000000000208 0.010000000000000000208 0.010000000000000000208 0.010000000000000000208 0.010000000000000000208 0.010000000000000000208 0.010000000000000000208 0.010000000000000000208 0.021269945415886934437 0.016924489030012090929 0.015091266179067766573 0.013647456174608729035 0.012499842443390382293 0.010766495701674439964 0.010000000000000000208 0.010000000000000000208 0.010000000000000000208 0.010000000000000000208 0.010000000000000000208 0.010000000000000000208 0.010000000000000000208 0.010000000000000000208 0.010000000000000000208 0.010000000000000000208 0.010000000000000000208 0.010000000000000000208 0.010000000000000000208 0.010000000000000000208 0.010000000000000000208 0.010000000000000000208 0.010000000000000000208 0.010000000000000000208 0.010000000000000000208 0.010000000000000000208 0.010000000000000000208 0.010000000000000000208 0.010000000000000000208 0.010000000000000000208 0.010000000000000000208 0.010000000000000000208 0.010257002177993860409 0.010000000000000000208 0.010000000000000000208 0.010000000000000000208 0.010000000000000000208 0.010000000000000000208 0.010000000000000000208 0.010000000000000000208 0.010000000000000000208 0.010000000000000000208 0.010000000000000000208 0.010000000000000000208 0.010000000000000000208 0.010000000000000000208 0.010000000000000000208 0.010000000000000000208 0.010000000000000000208 0.010000000000000000208 0.010000000000000000208 0.010000000000000000208 0.010000000000000000208 0.010000000000000000208 0.010000000000000000208 0.010000000000000000208 0.010000000000000000208 0.010000000000000000208 0.010000000000000000208 0.010000000000000000208 0.010000000000000000208 0.010000000000000000208 0.010000000000000000208 0.010000000000000000208 0.010000000000000000208 0.010000000000000000208 0.010000000000000000208 0.010000000000000000208 0.010000000000000000208 0.010000000000000000208 0.010000000000000000208 0.010000000000000000208 0.010000000000000000208 0.010000000000000000208 0.010000000000000000208 0.010000000000000000208 0.010000000000000000208 0.010000000000000000208 0.010000000000000000208 0.010000000000000000208 0.010000000000000000208 0.010000000000000000208 0.010000000000000000208 0.010000000000000000208 0.010000000000000000208 0.010000000000000000208 0.010000000000000000208 0.010000000000000000208 0.010000000000000000208 0.010000000000000000208 0.010000000000000000208 0.010000000000000000208 0.010000000000000000208 0.010000000000000000208 0.010000000000000000208 0.010000000000000000208 0.010000000000000000208 0.010000000000000000208 0.010000000000000000208 0.010000000000000000208 0.010000000000000000208 0.010000000000000000208 0.010000000000000000208 0.010000000000000000208 0.010000000000000000208 0.010000000000000000208 0.010000000000000000208 0.010000000000000000208 0.010000000000000000208 0.010000000000000000208 0.010000000000000000208 0.010000000000000000208 0.010000000000000000208 0.010000000000000000208 0.010000000000000000208 0.010000000000000000208 0.010000000000000000208 0.010000000000000000208 0.010000000000000000208 0.010000000000000000208 0.010000000000000000208 0.010000000000000000208 0.010000000000000000208 0.010000000000000000208 0.010000000000000000208 0.010000000000000000208 0.010000000000000000208 0.010000000000000000208 0.010000000000000000208 0.010000000000000000208 0.010000000000000000208 0.010000000000000000208 0.010000000000000000208 0.010000000000000000208 0.010000000000000000208 0.010000000000000000208 0.010000000000000000208 0.010000000000000000208 0.010000000000000000208 0.010000000000000000208 0.010000000000000000208 0.010000000000000000208 0.010000000000000000208 0.010000000000000000208 0.010000000000000000208 0.010000000000000000208 0.010000000000000000208 0.010000000000000000208 0.010000000000000000208 0.010000000000000000208 0.010000000000000000208 0.010000000000000000208 0.010000000000000000208 0.010000000000000000208 0.010000000000000000208 0.010000000000000000208 0.010000000000000000208 0.010000000000000000208 0.010000000000000000208 0.010000000000000000208 0.010000000000000000208 0.010000000000000000208 0.010000000000000000208 0.010000000000000000208 0.010000000000000000208 0.010000000000000000208 0.010000000000000000208 0.010000000000000000208 0.010000000000000000208 0.010000000000000000208 0.010000000000000000208 0.010000000000000000208 0.010000000000000000208 0.010000000000000000208 0.010000000000000000208 0.010000000000000000208 0.010000000000000000208 0.010000000000000000208 0.010000000000000000208 0.010000000000000000208 0.010000000000000000208 0.010000000000000000208 0.010000000000000000208 0.010000000000000000208 0.010000000000000000208 0.010000000000000000208 0.010000000000000000208 0.010000000000000000208 0.010000000000000000208 0.010000000000000000208 0.010000000000000000208 0.010000000000000000208 0.010000000000000000208 0.010000000000000000208 0.010000000000000000208 0.010000000000000000208 0.010000000000000000208 0.010000000000000000208 0.010000000000000000208 0.010000000000000000208 0.010000000000000000208 0.010000000000000000208 0.010000000000000000208 0.010000000000000000208 0.010000000000000000208 0.010000000000000000208 0.010000000000000000208 0.010000000000000000208 0.010000000000000000208 0.010000000000000000208 0.010000000000000000208 0.010000000000000000208 0.010000000000000000208 0.010000000000000000208 0.010000000000000000208 0.010000000000000000208 0.010000000000000000208 0.010000000000000000208 0.010000000000000000208 0.010000000000000000208 0.010000000000000000208 0.010000000000000000208 0.010000000000000000208 0.010000000000000000208 0.010000000000000000208 0.010000000000000000208 0.010000000000000000208 0.010000000000000000208 0.010000000000000000208 0.010000000000000000208 0.010000000000000000208 0.010000000000000000208 0.010000000000000000208 0.010000000000000000208 0.010000000000000000208 0.010000000000000000208 0.010000000000000000208 0.010000000000000000208 0.010000000000000000208 0.010000000000000000208 0.010000000000000000208 0.010000000000000000208 0.010000000000000000208 0.010000000000000000208 0.010000000000000000208 0.010000000000000000208 0.010000000000000000208 0.010000000000000000208 0.010000000000000000208 0.010000000000000000208 0.010000000000000000208 0.010000000000000000208 0.010000000000000000208 0.010000000000000000208 0.010000000000000000208 0.010000000000000000208 0.010000000000000000208 0.010000000000000000208 0.010000000000000000208 0.010000000000000000208 0.010000000000000000208 0.010000000000000000208 0.010000000000000000208 0.010000000000000000208 0.010000000000000000208 0.010000000000000000208 0.010000000000000000208 0.010000000000000000208 0.010000000000000000208 0.010000000000000000208 0.010000000000000000208 0.010000000000000000208 0.010000000000000000208 0.010000000000000000208 0.010000000000000000208 0.010000000000000000208 0.010000000000000000208 0.010000000000000000208 0.010000000000000000208 0.010000000000000000208 0.010000000000000000208 0.010000000000000000208 0.010000000000000000208 0.010000000000000000208 0.010000000000000000208 0.010000000000000000208 0.010000000000000000208 0.010000000000000000208 0.010000000000000000208 0.010000000000000000208 0.010000000000000000208 0.010000000000000000208 0.010000000000000000208 0.010000000000000000208 0.010000000000000000208 0.010000000000000000208 0.010000000000000000208 0.010000000000000000208 0.010000000000000000208 0.010000000000000000208 0.010000000000000000208 0.010000000000000000208 0.010000000000000000208 0.010000000000000000208 0.010000000000000000208 0.010000000000000000208 0.010000000000000000208 0.010000000000000000208 0.010000000000000000208 0.010000000000000000208 0.010000000000000000208 0.010000000000000000208 0.010000000000000000208 0.010000000000000000208 0.010000000000000000208 0.010000000000000000208 0.010000000000000000208 0.010000000000000000208 0.010000000000000000208 0.010000000000000000208 
        </DataArray>
      </CellData>
      <Points>
        <DataArray Name="m" NumberOfComponents="3" type="Float32" format="ascii">