<?xml version="1.0"?>
<VTKFile type="StructuredGrid" version="0.1" byte_order="LittleEndian">
  <StructuredGrid WholeExtent="0 8 0 8 0 8">
    <Piece Extent="0 8 0 8 0 8">
      <PointData>
      </PointData>
      <CellData>
        <DataArray Name="vx" NumberOfComponents="1" type="Float32" format="ascii">
0.8686278722669200647 0.86862787226697846243 0.86862787226692139697 0.86862787226697601994 0.86862787226692284026 0.86862787226697668608 0.86862787226692050879 0.86862787226697824039 0.60873244612546661969 0.60873244612501098416 0.60873244612546872911 0.60873244612501853368 0.60873244612545696075 0.60873244612502730444 0.6087324461254547403 0.60873244612502153128 0.35853398359285509889 0.3585339835954268195 0.35853398359281202223 0.35853398359543636742 0.35853398359284105457 0.35853398359538579676 0.35853398359288390917 0.3585339835953755272 0.11815042307041617731 0.1181504230632032526 0.11815042307054478277 0.11815042306310832854 0.11815042307055073634 0.11815042306319464838 0.1181504230704224917 0.11815042306328989163 -0.11815042307058418181 -0.11815042306306175468 -0.11815042307069448246 -0.11815042306292092289 -0.11815042307078352235 -0.11815042306293556396 -0.11815042307067342986 -0.11815042306307639575 -0.35853398359267829587 -0.35853398359556809538 -0.35853398359266563933 -0.35853398359562405062 -0.35853398359259913697 -0.35853398359566263087 -0.35853398359261212658 -0.35853398359560645359 -0.60873244612552479538 -0.60873244612496602013 -0.60873244612551391519 -0.60873244612496346662 -0.60873244612552845911 -0.60873244612494437078 -0.60873244612553878419 -0.60873244612494736838 -0.86862787226690529874 -0.8686278722669892316 -0.8686278722669100727 -0.86862787226698578991 -0.86862787226691073883 -0.86862787226699123 -0.86862787226690651998 -0.86862787226699356147 0.8686278722669902308 0.86862787226690874043 0.86862787226698801035 0.86862787226691084985 0.86862787226698756626 0.86862787226691040576 0.86862787226698978671 0.86862787226690774123 0.60873244612493415673 0.60873244612555232891 0.60873244612493149219 0.60873244612554344712 0.608732446124945481 0.60873244612553156774 0.60873244612494847861 0.60873244612553978339 0.35853398359582078214 0.35853398359239896376 0.35853398359587407285 0.35853398359238741744 0.35853398359583754651 0.35853398359245119975 0.35853398359578397825 0.35853398359246285709 0.11815042306215547963 0.11815042307160537882 0.11815042306199684263 0.11815042307172129998 0.11815042306199111111 0.11815042307161351121 0.11815042306214952605 0.11815042307149727085 -0.11815042306194603605 -0.11815042307178261205 -0.11815042306180929821 -0.11815042307195486315 -0.11815042306170213393 -0.11815042307193436566 -0.1181504230618386081 -0.11815042307176205905 -0.35853398359604465861 -0.3585339835922179974 -0.35853398359606203361 -0.35853398359214849744 -0.35853398359614352398 -0.35853398359210253421 -0.35853398359612592694 -0.35853398359217225622 -0.60873244612485843952 -0.60873244612561161482 -0.60873244612487154015 -0.60873244612561516753 -0.60873244612485333249 -0.6087324461256389263 -0.60873244612484067595 -0.60873244612563448541 -0.86862787226700999277 -0.86862787226689386344 -0.86862787226700410859 -0.86862787226689786024 -0.86862787226700433063 -0.86862787226689142095 -0.86862787226700977072 -0.86862787226688797926 0.86862787226689786024 0.86862787226700099996 0.86862787226689996967 0.86862787226699833543 0.86862787226690096887 0.8686278722669982244 0.86862787226689808229 0.86862787226700188814 0.60873244612562027456 0.60873244612485633009 0.60873244612562293909 0.6087324461248653229 0.60873244612560750699 0.60873244612487920069 0.60873244612560450939 0.60873244612486943073 0.35853398359205140844 0.35853398359624089053 0.35853398359199351031 0.3585339835962516597 0.35853398359203597634 0.35853398359618027236 0.35853398359209409652 0.35853398359616972524 0.11815042307253587062 0.11815042306105909276 0.11815042307271124422 0.11815042306093512248 0.11815042307271191036 0.11815042306105853764 0.11815042307253648124 0.11815042306118275772 -0.11815042307278512956 -0.11815042306084352908 -0.11815042307293992241 -0.11815042306065476341 -0.1181504230730527627 -0.11815042306068387901 -0.1181504230728983168 -0.1181504230608727557 -0.35853398359178206833 -0.35853398359646448945 -0.35853398359175964183 -0.35853398359654303773 -0.35853398359167043541 -0.35853398359659099937 -0.35853398359169258436 -0.35853398359651267313 -0.60873244612571231205 -0.60873244612478172311 -0.6087324461256986563 -0.60873244612477728221 -0.60873244612571908441 -0.60873244612475085891 -0.60873244612573307322 -0.60873244612475563287 -0.86862787226687310227 -0.86862787226701965171 -0.86862787226687954156 -0.86862787226701476673 -0.86862787226688065179 -0.86862787226702153909 -0.86862787226687387943 -0.86862787226702675714 0.86862787226700399756 0.86862787226689475162 0.86862787226700144405 0.86862787226689708309 0.86862787226700066689 0.868627872266896639 0.86862787226700444165 0.86862787226689408548 0.60873244612484067595 0.60873244612564558764 0.60873244612483878857 0.60873244612563603972 0.6087324461248538876 0.60873244612562360523 0.60873244612485544192 0.60873244612563348621 0.35853398359631505343 0.35853398359190313816 0.3585339835963686772 0.35853398359189614375 0.35853398359632548953 0.35853398359196481104 0.35853398359627169922 0.35853398359197180545 0.11815042306084637402 0.11815042307292217272 0.11815042306067782829 0.1181504230730360816 0.11815042306068472555 0.11815042307291233337 0.11815042306085299373 0.11815042307279818856 -0.11815042306058258503 -0.1181504230731555416 -0.11815042306042891629 -0.11815042307333620264 -0.11815042306032641495 -0.11815042307330057836 -0.11815042306047968124 -0.11815042307311998671 -0.35853398359660071382 -0.35853398359165911113 -0.35853398359662597139 -0.35853398359158156206 -0.35853398359671123652 -0.35853398359153815234 -0.35853398359668631201 -0.35853398359161559039 -0.60873244612474297632 -0.60873244612572685597 -0.60873244612475552184 -0.60873244612573196299 -0.60873244612473498272 -0.6087324461257573871 -0.60873244612472199311 -0.60873244612575228008 -0.86862787226703030985 -0.86862787226687410147 -0.86862787226702420362 -0.86862787226687998565 -0.86862787226702231624 -0.86862787226687365738 -0.86862787226702897758 -0.86862787226686744013 0.86862787226690196807 0.8686278722669972252 0.8686278722669036334 0.86862787226699500476 0.86862787226690418851 0.86862787226699578191 0.86862787226690041376 0.86862787226699733623 0.60873244612559573863 0.60873244612488219829 0.60873244612559684885 0.60873244612489074701 0.60873244612558419231 0.6087324461249001839 0.60873244612558419231 0.60873244612489207928 0.35853398359216898106 0.35853398359611482471 0.35853398359212623747 0.35853398359611782231 0.35853398359216426261 0.35853398359606070134 0.35853398359220683966 0.35853398359605742618 0.11815042307223816431 0.11815042306137105155 0.11815042307237984265 0.1181504230612797357 0.11815042307236781061 0.11815042306138810735 0.11815042307222653473 0.11815042306147953421 -0.11815042307248245501 -0.1181504230611505335 -0.11815042307261595933 -0.11815042306099859948 -0.11815042307269793542 -0.1181504230610345707 -0.11815042307256472254 -0.11815042306118646309 -0.35853398359190558065 -0.35853398359634514048 -0.35853398359188198841 -0.35853398359641203141 -0.35853398359181049004 -0.35853398359644672588 -0.35853398359183402677 -0.35853398359638000148 -0.60873244612568588874 -0.60873244612480625904 -0.60873244612567511957 -0.60873244612480181814 -0.60873244612569243905 -0.60873244612478005777 -0.60873244612570287515 -0.60873244612478494275 -0.86862787226687709907 -0.86862787226701654308 -0.86862787226688242814 -0.86862787226701076992 -0.86862787226688553677 -0.86862787226701643206 -0.86862787226687954156 -0.86862787226702142807 0.86862787226698401355 0.86862787226691462461 0.86862787226698323639 0.86862787226691573483 0.86862787226698334742 0.8686278722669140695 0.86862787226698534582 0.86862787226691451359 0.60873244612496879569 0.60873244612551491439 0.60873244612496890671 0.60873244612550814203 0.60873244612497801054 0.60873244612550203581 0.60873244612497723338 0.60873244612550758692 0.35853398359565474829 0.35853398359257682149 0.35853398359568683373 0.35853398359257582229 0.35853398359565669118 0.35853398359261945405 0.35853398359562521636 0.35853398359262089734 0.11815042306257526883 0.11815042307116534193 0.11815042306246432979 0.1181504230712351472 0.11815042306247620918 0.11815042307114864695 0.11815042306258652371 0.11815042307107878616 -0.1181504230623727919 -0.1181504230713497916 -0.11815042306226623825 -0.11815042307146984835 -0.11815042306220271962 -0.11815042307143973355 -0.11815042306230905123 -0.11815042307131996824 -0.3585339835958708532 -0.35853398359238619619 -0.35853398359588956046 -0.35853398359233334958 -0.35853398359594595979 -0.35853398359230626014 -0.35853398359592669742 -0.35853398359235888471 -0.60873244612489585403 -0.60873244612557730893 -0.60873244612490440275 -0.60873244612558075062 -0.60873244612489085803 -0.60873244612559784805 -0.60873244612488353056 -0.60873244612559329614 -0.86862787226700455268 -0.86862787226689908149 -0.86862787226699977872 -0.86862787226690318931 -0.86862787226699766929 -0.86862787226689774922 -0.8686278722670016661 -0.86862787226689552877 0.86862787226692428355 0.86862787226697391052 0.86862787226692528275 0.8686278722669728003 0.86862787226692528275 0.86862787226697435461 0.86862787226692406151 0.86862787226697368848 0.60873244612544186172 0.60873244612503740747 0.60873244612544241683 0.60873244612504318063 0.60873244612543464527 0.60873244612504806561 0.60873244612543453425 0.60873244612504384676 0.35853398359297194986 0.35853398359530130879 0.35853398359294408326 0.3585339835953033627 0.35853398359296845266 0.35853398359526705841 0.35853398359299576414 0.35853398359526411632 0.11815042307012012246 0.11815042306351355994 0.11815042307021496326 0.11815042306345131806 0.11815042307020852397 0.1181504230635224556 0.11815042307011419664 0.11815042306358489177 -0.11815042307028321422 -0.11815042306336703826 -0.11815042307037217084 -0.11815042306326314914 -0.11815042307043038816 -0.11815042306328446542 -0.11815042307034172298 -0.11815042306338818801 -0.35853398359280092 -0.35853398359544957907 -0.35853398359278709773 -0.35853398359549376595 -0.35853398359273835894 -0.35853398359551907904 -0.35853398359275256979 -0.3585339835954751142 -0.60873244612549870514 -0.60873244612499033401 -0.60873244612549082255 -0.60873244612498766948 -0.60873244612550192478 -0.60873244612497290351 -0.60873244612550869714 -0.60873244612497623418 -0.86862787226690985065 -0.86862787226698534582 -0.86862787226691318132 -0.86862787226698234821 -0.8686278722669150687 -0.86862787226698701115 -0.86862787226691173803 -0.86862787226698812137 0.86862787226697224519 0.86862787226692739218 0.86862787226697057985 0.86862787226692894649 0.86862787226697002474 0.8686278722669275032 0.86862787226697191212 0.86862787226692717013 0.6087324461250579466 0.60873244612542587451 0.60873244612505705842 0.60873244612541976828 0.60873244612506538509 0.60873244612541410614 0.60873244612506649531 0.60873244612541810294 0.35853398359517868466 0.35853398359305388432 0.35853398359521110317 0.35853398359304822218 0.35853398359518712235 0.35853398359308757959 0.35853398359515498139 0.35853398359309407439 0.11815042306384275494 0.11815042306989077814 0.1181504230637405034 0.11815042306996344224 0.1181504230637396291 0.11815042306989229082 0.11815042306384143656 0.11815042306981932141 -0.11815042306369377689 -0.11815042307001964728 -0.11815042306360322433 -0.11815042307013234879 -0.11815042306353434887 -0.11815042307011733302 -0.11815042306362463775 -0.11815042307000475641 -0.35853398359533378281 -0.35853398359292620867 -0.35853398359534505158 -0.35853398359288063402 -0.35853398359539806473 -0.35853398359285038044 -0.35853398359538668494 -0.35853398359289601061 -0.6087324461250072094 -0.60873244612546628662 -0.60873244612501609119 -0.60873244612546850707 -0.60873244612500465589 -0.60873244612548416121 -0.60873244612499677331 -0.60873244612548127463 -0.86862787226698490173 -0.86862787226691740017 -0.86862787226698146004 -0.86862787226692039777 -0.86862787226698012777 -0.86862787226691584586 -0.8686278722669827923 -0.86862787226691484666 
        </DataArray>
      </CellData>
      <Points>
        <DataArray Name="m" NumberOfComponents="3" type="Float32" format="ascii">
0 0 0 0.125 0 0 0.25 0 0 0.375 0 0 0.5 0 0 0.625 0 0 0.75 0 0 0.875 0 0 1 0 0 0 0.125 0 0.125 0.125 0 0.25 0.125 0 0.375 0.125 0 0.5 0.125 0 0.625 0.125 0 0.75 0.125 0 0.875 0.125 0 1 0.125 0 0 0.25 0 0.125 0.25 0 0.25 0.25 0 0.375 0.25 0 0.5 0.25 0 0.625 0.25 0 0.75 0.25 0 0.875 0.25 0 1 0.25 0 0 0.375 0 0.125 0.375 0 0.25 0.375 0 0.375 0.375 0 0.5 0.375 0 0.625 0.375 0 0.75 0.375 0 0.875 0.375 0 1 0.375 0 0 0.5 0 0.125 0.5 0 0.25 0.5 0 0.375 0.5 0 0.5 0.5 0 0.625 0.5 0 0.75 0.5 0 0.875 0.5 0 1 0.5 0 0 0.625 0 0.125 0.625 0 0.25 0.625 0 0.375 0.625 0 0.5 0.625 0 0.625 0.625 0 0.75 0.625 0 0.875 0.625 0 1 0.625 0 0 0.75 0 0.125 0.75 0 0.25 0.75 0 0.375 0.75 0 0.5 0.75 0 0.625 0.75 0 0.75 0.75 0 0.875 0.75 0 1 0.75 0 0 0.875 0 0.125 0.875 0 0.25 0.875 0 0.375 0.875 0 0.5 0.875 0 0.625 0.875 0 0.75 0.875 0 0.875 0.875 0 1 0.875 0 0 1 0 0.125 1 0 0.25 1 0 0.375 1 0 0.5 1 0 0.625 1 0 0.75 1 0 0.875 1 0 1 1 0 0 0 0.125 0.125 0 0.125 0.25 0 0.125 0.375 0 0.125 0.5 0 0.125 0.625 0 0.125 0.75 0 0.125 0.875 0 0.125 1 0 0.125 0 0.125 0.125 0.125 0.125 0.125 0.25 0.125 0.125 0.375 0.125 0.125 0.5 0.125 0.125 0.625 0.125 0.125 0.75 0.125 0.125 0.875 0.125 0.125 1 0.125 0.125 0 0.25 0.125 0.125 0.25 0.125 0.25 0.25 0.125 0.375 0.25 0.125 0.5 0.25 0.125 0.625 0.25 0.125 0.75 0.25 0.125 0.875 0.25 0.125 1 0.25 0.125 0 0.375 0.125 0.125 0.375 0.125 0.25 0.375 0.125 0.375 0.375 0.125 0.5 0.375 0.125 0.625 0.375 0.125 0.75 0.375 0.125 0.875 0.375 0.125 1 0.375 0.125 0 0.5 0.125 0.125 0.5 0.125 0.25 0.5 0.125 0.375 0.5 0.125 0.5 0.5 0.125 0.625 0.5 0.125 0.75 0.5 0.125 0.875 0.5 0.125 1 0.5 0.125 0 0.625 0.125 0.125 0.625 0.125 0.25 0.625 0.125 0.375 0.625 0.125 0.5 0.625 0.125 0.625 0.625 0.125 0.75 0.625 0.125 0.875 0.625 0.125 1 0.625 0.125 0 0.75 0.125 0.125 0.75 0.125 0.25 0.75 0.125 0.375 0.75 0.125 0.5 0.75 0.125 0.625 0.75 0.125 0.75 0.75 0.125 0.875 0.75 0.125 1 0.75 0.125 0 0.875 0.125 0.125 0.875 0.125 0.25 0.875 0.125 0.375 0.875 0.125 0.5 0.875 0.125 0.625 0.875 0.125 0.75 0.875 0.125 0.875 0.875 0.125 1 0.875 0.125 0 1 0.125 0.125 1 0.125 0.25 1 0.125 0.375 1 0.125 0.5 1 0.125 0.625 1 0.125 0.75 1 0.125 0.875 1 0.125 1 1 0.125 0 0 0.25 0.125 0 0.25 0.25 0 0.25 0.375 0 0.25 0.5 0 0.25 0.625 0 0.25 0.75 0 0.25 0.875 0 0.25 1 0 0.25 0 0.125 0.25 0.125 0.125 0.25 0.25 0.125 0.25 0.375 0.125 0.25 0.5 0.125 0.25 0.625 0.125 0.25 0.75 0.125 0.25 0.875 0.125 0.25 1 0.125 0.25 0 0.25 0.25 0.125 0.25 0.25 0.25 0.25 0.25 0.375 0.25 0.25 0.5 0.25 0.25 0.625 0.25 0.25 0.75 0.25 0.25 0.875 0.25 0.25 1 0.25 0.25 0 0.375 0.25 0.125 0.375 0.25 0.25 0.375 0.25 0.375 0.375 0.25 0.5 0.375 0.25 0.625 0.375 0.25 0.75 0.375 0.25 0.875 0.375 0.25 1 0.375 0.25 0 0.5 0.25 0.125 0.5 0.25 0.25 0.5 0.25 0.375 0.5 0.25 0.5 0.5 0.25 0.625 0.5 0.25 0.75 0.5 0.25 0.875 0.5 0.25 1 0.5 0.25 0 0.625 0.25 0.125 0.625 0.25 0.25 0.625 0.25 0.375 0.625 0.25 0.5 0.625 0.25 0.625 0.625 0.25 0.75 0.625 0.25 0.875 0.625 0.25 1 0.625 0.25 0 0.75 0.25 0.125 0.75 0.25 0.25 0.75 0.25 0.375 0.75 0.25 0.5 0.75 0.25 0.625 0.75 0.25 0.75 0.75 0.25 0.875 0.75 0.25 1 0.75 0.25 0 0.875 0.25 0.125 0.875 0.25 0.25 0.875 0.25 0.375 0.875 0.25 0.5 0.875 0.25 0.625 0.875 0.25 0.75 0.875 0.25 0.875 0.875 0.25 1 0.875 0.25 0 1 0.25 0.125 1 0.25 0.25 1 0.25 0.375 1 0.25 0.5 1 0.25 0.625 1 0.25 0.75 1 0.25 0.875 1 0.25 1 1 0.25 0 0 0.375 0.125 0 0.375 0.25 0 0.375 0.375 0 0.375 0.5 0 0.375 0.625 0 0.375 0.75 0 0.375 0.875 0 0.375 1 0 0.375 0 0.125 0.375 0.125 0.125 0.375 0.25 0.125 0.375 0.375 0.125 0.375 0.5 0.125 0.375 0.625 0.125 0.375 0.75 0.125 0.375 0.875 0.125 0.375 1 0.125 0.375 0 0.25 0.375 0.125 0.25 0.375 0.25 0.25 0.375 0.375 0.25 0.375 0.5 0.25 0.375 0.625 0.25 0.375 0.75 0.25 0.375 0.875 0.25 0.375 1 0.25 0.375 0 0.375 0.375 0.125 0.375 0.375 0.25 0.375 0.375 0.375 0.375 0.375 0.5 0.375 0.375 0.625 0.375 0.375 0.75 0.375 0.375 0.875 0.375 0.375 1 0.375 0.375 0 0.5 0.375 0.125 0.5 0.375 0.25 0.5 0.375 0.375 0.5 0.375 0.5 0.5 0.375 0.625 0.5 0.375 0.75 0.5 0.375 0.875 0.5 0.375 1 0.5 0.375 0 0.625 0.375 0.125 0.625 0.375 0.25 0.625 0.375 0.375 0.625 0.375 0.5 0.625 0.375 0.625 0.625 0.375 0.75 0.625 0.375 0.875 0.625 0.375 1 0.625 0.375 0 0.75 0.375 0.125 0.75 0.375 0.25 0.75 0.375 0.375 0.75 0.375 0.5 0.75 0.375 0.625 0.75 0.375 0.75 0.75 0.375 0.875 0.75 0.375 1 0.75 0.375 0 0.875 0.375 0.125 0.875 0.375 0.25 0.875 0.375 0.375 0.875 0.375 0.5 0.875 0.375 0.625 0.875 0.375 0.75 0.875 0.375 0.875 0.875 0.375 1 0.875 0.375 0 1 0.375 0.125 1 0.375 0.25 1 0.375 0.375 1 0.375 0.5 1 0.375 0.625 1 0.375 0.75 1 0.375 0.875 1 0.375 1 1 0.375 0 0 0.5 0.125 0 0.5 0.25 0 0.5 0.375 0 0.5 0.5 0 0.5 0.625 0 0.5 0.75 0 0.5 0.875 0 0.5 1 0 0.5 0 0.125 0.5 0.125 0.125 0.5 0.25 0.125 0.5 0.375 0.125 0.5 0.5 0.125 0.5 0.625 0.125 0.5 0.75 0.125 0.5 0.875 0.125 0.5 1 0.125 0.5 0 0.25 0.5 0.125 0.25 0.5 0.25 0.25 0.5 0.375 0.25 0.5 0.5 0.25 0.5 0.625 0.25 0.5 0.75 0.25 0.5 0.875 0.25 0.5 1 0.25 0.5 0 0.375 0.5 0.125 0.375 0.5 0.25 0.375 0.5 0.375 0.375 0.5 0.5 0.375 0.5 0.625 0.375 0.5 0.75 0.375 0.5 0.875 0.375 0.5 1 0.375 0.5 0 0.5 0.5 0.125 0.5 0.5 0.25 0.5 0.5 0.375 0.5 0.5 0.5 0.5 0.5 0.625 0.5 0.5 0.75 0.5 0.5 0.875 0.5 0.5 1 0.5 0.5 0 0.625 0.5 0.125 0.625 0.5 0.25 0.625 0.5 0.375 0.625 0.5 0.5 0.625 0.5 0.625 0.625 0.5 0.75 0.625 0.5 0.875 0.625 0.5 1 0.625 0.5 0 0.75 0.5 0.125 0.75 0.5 0.25 0.75 0.5 0.375 0.75 0.5 0.5 0.75 0.5 0.625 0.75 0.5 0.75 0.75 0.5 0.875 0.75 0.5 1 0.75 0.5 0 0.875 0.5 0.125 0.875 0.5 0.25 0.875 0.5 0.375 0.875 0.5 0.5 0.875 0.5 0.625 0.875 0.5 0.75 0.875 0.5 0.875 0.875 0.5 1 0.875 0.5 0 1 0.5 0.125 1 0.5 0.25 1 0.5 0.375 1 0.5 0.5 1 0.5 0.625 1 0.5 0.75 1 0.5 0.875 1 0.5 1 1 0.5 0 0 0.625 0.125 0 0.625 0.25 0 0.625 0.375 0 0.625 0.5 0 0.625 0.625 0 0.625 0.75 0 0.625 0.875 0 0.625 1 0 0.625 0 0.125 0.625 0.125 0.125 0.625 0.25 0.125 0.625 0.375 0.125 0.625 0.5 0.125 0.625 0.625 0.125 0.625 0.75 0.125 0.625 0.875 0.125 0.625 1 0.125 0.625 0 0.25 0.625 0.125 0.25 0.625 0.25 0.25 0.625 0.375 0.25 0.625 0.5 0.25 0.625 0.625 0.25 0.625 0.75 0.25 0.625 0.875 0.25 0.625 1 0.25 0.625 0 0.375 0.625 0.125 0.375 0.625 0.25 0.375 0.625 0.375 0.375 0.625 0.5 0.375 0.625 0.625 0.375 0.625 0.75 0.375 0.625 0.875 0.375 0.625 1 0.375 0.625 0 0.5 0.625 0.125 0.5 0.625 0.25 0.5 0.625 0.375 0.5 0.625 0.5 0.5 0.625 0.625 0.5 0.625 0.75 0.5 0.625 0.875 0.5 0.625 1 0.5 0.625 0 0.625 0.625 0.125 0.625 0.625 0.25 0.625 0.625 0.375 0.625 0.625 0.5 0.625 0.625 0.625 0.625 0.625 0.75 0.625 0.625 0.875 0.625 0.625 1 0.625 0.625 0 0.75 0.625 0.125 0.75 0.625 0.25 0.75 0.625 0.375 0.75 0.625 0.5 0.75 0.625 0.625 0.75 0.625 0.75 0.75 0.625 0.875 0.75 0.625 1 0.75 0.625 0 0.875 0.625 0.125 0.875 0.625 0.25 0.875 0.625 0.375 0.875 0.625 0.5 0.875 0.625 0.625 0.875 0.625 0.75 0.875 0.625 0.875 0.875 0.625 1 0.875 0.625 0 1 0.625 0.125 1 0.625 0.25 1 0.625 0.375 1 0.625 0.5 1 0.625 0.625 1 0.625 0.75 1 0.625 0.875 1 0.625 1 1 0.625 0 0 0.75 0.125 0 0.75 0.25 0 0.75 0.375 0 0.75 0.5 0 0.75 0.625 0 0.75 0.75 0 0.75 0.875 0 0.75 1 0 0.75 0 0.125 0.75 0.125 0.125 0.75 0.25 0.125 0.75 0.375 0.125 0.75 0.5 0.125 0.75 0.625 0.125 0.75 0.75 0.125 0.75 0.875 0.125 0.75 1 0.125 0.75 0 0.25 0.75 0.125 0.25 0.75 0.25 0.25 0.75 0.375 0.25 0.75 0.5 0.25 0.75 0.625 0.25 0.75 0.75 0.25 0.75 0.875 0.25 0.75 1 0.25 0.75 0 0.375 0.75 0.125 0.375 0.75 0.25 0.375 0.75 0.375 0.375 0.75 0.5 0.375 0.75 0.625 0.375 0.75 0.75 0.375 0.75 0.875 0.375 0.75 1 0.375 0.75 0 0.5 0.75 0.125 0.5 0.75 0.25 0.5 0.75 0.375 0.5 0.75 0.5 0.5 0.75 0.625 0.5 0.75 0.75 0.5 0.75 0.875 0.5 0.75 1 0.5 0.75 0 0.625 0.75 0.125 0.625 0.75 0.25 0.625 0.75 0.375 0.625 0.75 0.5 0.625 0.75 0.625 0.625 0.75 0.75 0.625 0.75 0.875 0.625 0.75 1 0.625 0.75 0 0.75 0.75 0.125 0.75 0.75 0.25 0.75 0.75 0.375 0.75 0.75 0.5 0.75 0.75 0.625 0.75 0.75 0.75 0.75 0.75 0.875 0.75 0.75 1 0.75 0.75 0 0.875 0.75 0.125 0.875 0.75 0.25 0.875 0.75 0.375 0.875 0.75 0.5 0.875 0.75 0.625 0.875 0.75 0.75 0.875 0.75 0.875 0.875 0.75 1 0.875 0.75 0 1 0.75 0.125 1 0.75 0.25 1 0.75 0.375 1 0.75 0.5 1 0.75 0.625 1 0.75 0.75 1 0.75 0.875 1 0.75 1 1 0.75 0 0 0.875 0.125 0 0.875 0.25 0 0.875 0.375 0 0.875 0.5 0 0.875 0.625 0 0.875 0.75 0 0.875 0.875 0 0.875 1 0 0.875 0 0.125 0.875 0.125 0.125 0.875 0.25 0.125 0.875 0.375 0.125 0.875 0.5 0.125 0.875 0.625 0.125 0.875 0.75 0.125 0.875 0.875 0.125 0.875 1 0.125 0.875 0 0.25 0.875 0.125 0.25 0.875 0.25 0.25 0.875 0.375 0.25 0.875 0.5 0.25 0.875 0.625 0.25 0.875 0.75 0.25 0.875 0.875 0.25 0.875 1 0.25 0.875 0 0.375 0.875 0.125 0.375 0.875 0.25 0.375 0.875 0.375 0.375 0.875 0.5 0.375 0.875 0.625 0.375 0.875 0.75 0.375 0.875 0.875 0.375 0.875 1 0.375 0.875 0 0.5 0.875 0.125 0.5 0.875 0.25 0.5 0.875 0.375 0.5 0.875 0.5 0.5 0.875 0.625 0.5 0.875 0.75 0.5 0.875 0.875 0.5 0.875 1 0.5 0.875 0 0.625 0.875 0.125 0.625 0.875 0.25 0.625 0.875 0.375 0.625 0.875 0.5 0.625 0.875 0.625 0.625 0.875 0.75 0.625 0.875 0.875 0.625 0.875 1 0.625 0.875 0 0.75 0.875 0.125 0.75 0.875 0.25 0.75 0.875 0.375 0.75 0.875 0.5 0.75 0.875 0.625 0.75 0.875 0.75 0.75 0.875 0.875 0.75 0.875 1 0.75 0.875 0 0.875 0.875 0.125 0.875 0.875 0.25 0.875 0.875 0.375 0.875 0.875 0.5 0.875 0.875 0.625 0.875 0.875 0.75 0.875 0.875 0.875 0.875 0.875 1 0.875 0.875 0 1 0.875 0.125 1 0.875 0.25 1 0.875 0.375 1 0.875 0.5 1 0.875 0.625 1 0.875 0.75 1 0.875 0.875 1 0.875 1 1 0.875 0 0 1 0.125 0 1 0.25 0 1 0.375 0 1 0.5 0 1 0.625 0 1 0.75 0 1 0.875 0 1 1 0 1 0 0.125 1 0.125 0.125 1 0.25 0.125 1 0.375 0.125 1 0.5 0.125 1 0.625 0.125 1 0.75 0.125 1 0.875 0.125 1 1 0.125 1 0 0.25 1 0.125 0.25 1 0.25 0.25 1 0.375 0.25 1 0.5 0.25 1 0.625 0.25 1 0.75 0.25 1 0.875 0.25 1 1 0.25 1 0 0.375 1 0.125 0.375 1 0.25 0.375 1 0.375 0.375 1 0.5 0.375 1 0.625 0.375 1 0.75 0.375 1 0.875 0.375 1 1 0.375 1 0 0.5 1 0.125 0.5 1 0.25 0.5 1 0.375 0.5 1 0.5 0.5 1 0.625 0.5 1 0.75 0.5 1 0.875 0.5 1 1 0.5 1 0 0.625 1 0.125 0.625 1 0.25 0.625 1 0.375 0.625 1 0.5 0.625 1 0.625 0.625 1 0.75 0.625 1 0.875 0.625 1 1 0.625 1 0 0.75 1 0.125 0.75 1 0.25 0.75 1 0.375 0.75 1 0.5 0.75 1 0.625 0.75 1 0.75 0.75 1 0.875 0.75 1 1 0.75 1 0 0.875 1 0.125 0.875 1 0.25 0.875 1 0.375 0.875 1 0.5 0.875 1 0.625 0.875 1 0.75 0.875 1 0.875 0.875 1 1 0.875 1 0 1 1 0.125 1 1 0.25 1 1 0.375 1 1 0.5 1 1 0.625 1 1 0.75 1 1 0.875 1 1 1 1 1         </DataArray>
      </Points>
    </Piece>
  </StructuredGrid>
</VTKFile>
