<?xml version="1.0"?>
<VTKFile type="StructuredGrid" version="0.1" byte_order="LittleEndian">
  <StructuredGrid WholeExtent="0 8 0 8 0 8">
    <Piece Extent="0 8 0 8 0 8">
      <PointData>
      </PointData>
      <CellData>
        <DataArray Name="vy" NumberOfComponents="1" type="Float32" format="ascii">
0.8955324399005093472 0.97465814301900033367 0.9503129186699577069 0.94805811115410865142 0.94814894578074060405 0.95033565003972353402 0.97466504818314558811 0.89553947556264967833 0.74970094371785245269 0.93213295485115310601 0.88487967064913863879 0.87358073455701812371 0.87349350352685306564 0.88486050020488349332 0.93213763900444501775 0.7496860868740563566 0.56988717696172852545 0.83517591747829278415 0.80716261178111703423 0.78469855337793559258 0.78466283431785521785 0.80714859854214471291 0.83518239411172889852 0.56988224542512244675 0.43893174423783654081 0.73773353803938601647 0.74261960370610180515 0.71806720705759174983 0.7180315096761307192 0.74262220351529661944 0.73771455723429579798 0.43893112705560383136 0.36868879764215595207 0.66499002956657304875 0.69737315010644751467 0.67922666232437123313 0.67923173879915355045 0.6973915526899784334 0.66499459572192098911 0.3686707993856843113 0.32756337127161788692 0.61320356421694643956 0.66544087439948795826 0.65664413133277632628 0.65671575229142165053 0.66545294741477467593 0.61319089825564365714 0.32755296686153184682 0.30090440841746440848 0.57626545188739786152 0.64105333458196467333 0.640776216017888256 0.64088721455105601699 0.64108969285984973574 0.57626892942954421883 0.30087431762739336172 0.29464848163953477611 0.56543055917906881458 0.63306907292057212899 0.63547795212196112047 0.63542695504469981493 0.63308160567367877114 0.56544646713059376619 0.29462558053755111276 0.97465814302144382353 1.0754110965210403883 1.04148072784567991 1.0404942119224658281 1.0404118229927838968 1.0414547249311443267 1.0754212394830551247 0.97466504818137122967 0.93213295485194969103 1.2004233604729195317 1.1287518966012350941 1.1172812748571927521 1.1173272872817301415 1.1287808388115367908 1.2004338491186699045 0.93213763900362023307 0.83517591747801600555 1.2661998304627941625 1.2115716112065972876 1.1824281885519460911 1.1824476189449011354 1.2115900713880394246 1.266172296802650532 0.83518239411150396734 0.7377335380406206955 1.2787389369539043926 1.2694176644284742572 1.2293490390853663019 1.229328645350622029 1.2694214152927856265 1.2787150810258287592 0.73771455723302703511 0.66499002956496300332 1.261644535395475053 1.3007738476094219404 1.2601898263732724814 1.2602082920103070407 1.3007314729790937502 1.2616701267933987385 0.66499459572281605091 0.61320356421896915489 1.2318257927616842462 1.3138028280563145422 1.2802015609079362424 1.2801281117743188442 1.3138051610216099352 1.2317815100522919725 0.61319089825417849582 0.57626545188578881529 1.1969336144788693677 1.3123706672253476757 1.2890621366794925429 1.2889902294499642199 1.3123281762400673678 1.1969662297249124006 0.5762689294306392318 0.5654305591842724299 1.1750705020761003095 1.3131049909693928157 1.3026046201161955995 1.3026495570942597801 1.3131407721379655396 1.1750572109552785971 0.56544646712707713476 0.95031291865949119035 1.041480727868274947 1.0110035404987824936 1.0095216209719826139 1.0095133067036958785 1.0110148858754299805 1.0414547249157404263 0.95033565004685371935 0.88487967064517480953 1.1287518966037970447 1.0631988312938565056 1.0512082350129741126 1.0512136333227422025 1.0631877085035033037 1.1287808388098792278 0.88486050020745832256 0.80716261178348591709 1.2115716112136090121 1.1603576834499220727 1.1316603196328880454 1.1316509765375080132 1.1603923367860342619 1.2115900713831857516 0.80714859854007325879 0.74261960369923674108 1.2694176644307559876 1.257404523887589276 1.2179252075900575125 1.2179513964713000185 1.2574183611492746326 1.2694214152911145188 0.74262220351925223305 0.69737315011625811145 1.3007738476052088661 1.332187158782359937 1.2904904324526182968 1.290488592458322481 1.3322199883779650698 1.3007314729819854371 0.69739155268257035925 0.6654408743904973722 1.3138028280630704714 1.3854998080007963068 1.3481035207377272123 1.3482074029099866408 1.3855495423327843785 1.3138051610170660144 0.66545294742041849467 0.64105333459262825446 1.3123706672144044294 1.4177741893713144972 1.3877873338770723155 1.3878844444383433565 1.4178697461132432345 1.3123281762474592327 0.64108969285246031333 0.6330690729027363961 1.3131049910003604886 1.4454063189477095452 1.4270889769097452326 1.4271004087708896169 1.4453682693123157676 1.313140772116621946 0.63308160568611326902 0.94805811117627003526 1.0404942118610038815 1.0095216210275368418 1.0080938990111103504 1.0080954981423124739 1.0095133066656576393 1.040411823034834482 0.94814894576551345118 0.87358073456582296945 1.1172812748510951852 1.0512082350129536845 1.0392989562937204884 1.0392913948724131767 1.0512136333224886275 1.1173272872859725258 0.87349350352055499247 0.78469855337057359268 1.1824281885326541897 1.1316603196525130137 1.1029710687871476793 1.1029963188088456327 1.1316509765242628305 1.1824476189578514429 0.78466283432244787743 0.71806720707311810781 1.2293490390795200895 1.2179252075939162037 1.1791514572532699745 1.1791512420114143023 1.2179513964687549432 1.2293286453544864933 0.71803150966441531278 0.67922666230257444653 1.2601898263889572682 1.290490432442419122 1.2506095760667998995 1.2506536498336151553 1.2904885924654752039 1.2602082919994737065 0.6792317388137001366 0.65664413135693011636 1.2802015608939549818 1.3481035207507063856 1.313304907203266092 1.3132952736816683181 1.3482074029013064731 1.2801281117839176105 0.65671575227415623921 0.64077621599925760343 1.289062136713697404 1.3877873338513146972 1.3600923422376376415 1.3601725866035598855 1.387884444456202182 1.2889902294266435412 0.64088721456357966577 0.63547795216523361717 1.3026046200360985594 1.4270889769746821774 1.4098440810768497755 1.4098596090176409579 1.4271004087266361271 1.3026495571490763759 0.63542695501531787361 0.94814894574811603434 1.0404118230910994747 1.0095133065890953272 1.0080954982120271524 1.0080938989633700942 1.0095216210504487364 1.0404942118550553065 0.94805811117648275399 0.87349350351415111504 1.1173272872897781482 1.0512136333232551255 1.0392913948727291462 1.0392989562938768078 1.051208235012716985 1.1172812748512315206 0.87358073456628682063 0.78466283433054873075 1.1824476189745485311 1.1316509764962585649 1.1029963188352598369 1.10297106876897133 1.1316603196604189119 1.1824281885313647766 0.78469855337017002661 0.71803150965327444677 1.2293286453595171359 1.2179513964631225598 1.1791512420150489504 1.1791514572499424141 1.2179252075947020195 1.2293490390788077704 0.71806720707473836729 0.6792317388343435125 1.2602082919860340127 1.2904885924782454332 1.2506536498195923723 1.2506095760757363067 1.2904904324374648628 1.2601898263895368046 0.67922666230076356175 0.65671575225640954621 1.2801281117990706004 1.3482074028825814516 1.3132952736961840401 1.3133049071925773088 1.3481035207548823784 1.2802015608906538446 0.65664413135695742785 0.64088721458165953671 1.2889902293996371441 1.3878844444905180655 1.3601725865704790142 1.360092342259458853 1.3877873338400503744 1.2890621367136003705 0.64077621599623768578 0.6354269549854033583 1.3026495572281571178 1.4271004086372882647 1.4098596091001454056 1.40984408101971459 1.4270889770005144026 1.302604620024263804 0.63547795216140900987 0.95033565007595210972 1.0414547248179211181 1.0110148860195458109 1.0095133065510415449 1.0095216211060189515 1.0110035404001758153 1.0414807279232409787 0.95031291864504274791 0.88486050021805195964 1.1287808388044182628 1.0631877085010652539 1.0512136333230071017 1.0512082350126905617 1.0631988312954510079 1.1287518966059795211 0.88487967064021177954 0.80714859852952403063 1.211590071355251208 1.1603923368333195487 1.1316509764830091633 1.131660319680048099 1.1603576834169289089 1.2115716112284748984 0.80716261179038339968 0.74262220354259667054 1.2694214152827516529 1.2574183611569804686 1.2179513964605777065 1.2179252075985609327 1.2574045238808613245 1.2694176644349022265 0.74261960368821455791 0.6973915526545423349 1.3007314730044963191 1.3322199883520349228 1.2904885924854021528 1.2904904324272616911 1.332187158798190163 1.3007738475916053034 0.69737315013134948405 0.66545294745604366415 1.3138051609933181219 1.3855495423669004218 1.3482074028738972871 1.3481035207678646604 1.3854998079755194151 1.3138028280753801802 0.66544087437162446896 0.6410896928273549511 1.3123281762986118704 1.4178697460481461956 1.3878844445083835524 1.3877873338142863169 1.4177741894144713086 1.3123706671851325112 0.64105333460413083113 0.63308160574277128063 1.3131407719930565658 1.4453682694791418761 1.427100408593025227 1.4270889770654604511 1.4454063188328813983 1.3131049910684327031 0.63306907287292724096 0.97466504815400645256 1.0754212395702489324 1.0414547248025050052 1.0404118231331758171 1.0404942117935680468 1.041480727945848006 1.0754110964612686452 0.97465814303898368198 0.93213763899554424874 1.2004338491282986467 1.1287808388027655848 1.1173272872940105405 1.1172812748451435017 1.1287518966085372529 1.2004233604657934542 0.93213295485741731738 0.83518239411991967991 1.2661722968232806963 1.2115900713503933162 1.1824476189875066101 1.1824281885120651037 1.2115716112354895095 1.2661998304481649757 0.83517591747297215132 0.73771455722000567334 1.2787150810337546414 1.2694214152810809892 1.2293286453633800459 1.2293490390729633344 1.2694176644371826246 1.2787389369479931212 0.73773353804971364411 0.66499459574772490367 1.2616701267704346634 1.3007314730073904485 1.2602082919751942391 1.2601898264052273646 1.3007738475873891204 1.2616445354110319421 0.66499002954937824761 0.61319089823076167178 1.2317815100763525038 1.3138051609887713145 1.2801281118086729194 1.2802015608766688093 1.3138028280821378857 1.2318257927453839518 0.6132035642343149906 0.57626892945600838303 1.1969662296818228686 1.3123281763060066218 1.2889902293763086938 1.2890621367478127812 1.3123706671741846019 1.1969336145083866452 0.57626545186952848887 0.56544646707907997296 1.1750572110870687315 1.3131407719717038685 1.3026495572829892566 1.3026046199441514428 1.3131049910994068153 1.1750705019855902655 0.56543055921433305056 0.89553947557436619498 0.97466504815223009572 0.95033565008309006661 0.94814894573287644697 0.94805811119865679437 0.95031291863456879287 0.97465814304142939228 0.89553243989239572631 0.74968608687614202157 0.93213763899472035224 0.8848605002206239023 0.87349350350785814889 0.87358073457508689241 0.88487967063625050379 0.93213295485821323627 0.74970094371640394471 0.56988224542313836718 0.8351823941196946377 0.80714859852745413082 0.78466283433513905887 0.78469855336281035818 0.8071626117927510613 0.83517591747269548375 0.56988717696322988004 0.43893112706321230077 0.73771455721873702149 0.74262220354655139598 0.7180315096415598175 0.71806720709026394811 0.74261960368134971588 0.73773353805094787905 0.43893174423298947362 0.36867079937946695134 0.66499459574862018751 0.6973915526471330395 0.67923173884889143093 0.67922666227896510982 0.69737315014116030287 0.66499002954776742502 0.36868879764693074375 0.32755296687375695663 0.61319089822929551126 0.66545294746168681677 0.65671575223914258057 0.65664413138111288326 0.66544087436263221758 0.61320356423633770593 0.32756337126373447077 0.30087431762017968762 0.57626892945710250782 0.64108969281996064371 0.64088721459418829252 0.6407762159776040356 0.64105333461479518942 0.57626545186791877651 0.30090440842270116395 0.29462558055957827063 0.56544646707556056597 0.63308160575520400215 0.63542695495602075084 0.63547795220468339394 0.63306907285508762229 0.56543055921953699894 0.29464848162458828762 
        </DataArray>
      </CellData>
      <Points>
        <DataArray Name="m" NumberOfComponents="3" type="Float32" format="ascii">
0 0 0 0.125 0 0 0.25 0 0 0.375 0 0 0.5 0 0 0.625 0 0 0.75 0 0 0.875 0 0 1 0 0 0 0.125 0 0.125 0.125 0 0.25 0.125 0 0.375 0.125 0 0.5 0.125 0 0.625 0.125 0 0.75 0.125 0 0.875 0.125 0 1 0.125 0 0 0.25 0 0.125 0.25 0 0.25 0.25 0 0.375 0.25 0 0.5 0.25 0 0.625 0.25 0 0.75 0.25 0 0.875 0.25 0 1 0.25 0 0 0.375 0 0.125 0.375 0 0.25 0.375 0 0.375 0.375 0 0.5 0.375 0 0.625 0.375 0 0.75 0.375 0 0.875 0.375 0 1 0.375 0 0 0.5 0 0.125 0.5 0 0.25 0.5 0 0.375 0.5 0 0.5 0.5 0 0.625 0.5 0 0.75 0.5 0 0.875 0.5 0 1 0.5 0 0 0.625 0 0.125 0.625 0 0.25 0.625 0 0.375 0.625 0 0.5 0.625 0 0.625 0.625 0 0.75 0.625 0 0.875 0.625 0 1 0.625 0 0 0.75 0 0.125 0.75 0 0.25 0.75 0 0.375 0.75 0 0.5 0.75 0 0.625 0.75 0 0.75 0.75 0 0.875 0.75 0 1 0.75 0 0 0.875 0 0.125 0.875 0 0.25 0.875 0 0.375 0.875 0 0.5 0.875 0 0.625 0.875 0 0.75 0.875 0 0.875 0.875 0 1 0.875 0 0 1 0 0.125 1 0 0.25 1 0 0.375 1 0 0.5 1 0 0.625 1 0 0.75 1 0 0.875 1 0 1 1 0 0 0 0.125 0.125 0 0.125 0.25 0 0.125 0.375 0 0.125 0.5 0 0.125 0.625 0 0.125 0.75 0 0.125 0.875 0 0.125 1 0 0.125 0 0.125 0.125 0.125 0.125 0.125 0.25 0.125 0.125 0.375 0.125 0.125 0.5 0.125 0.125 0.625 0.125 0.125 0.75 0.125 0.125 0.875 0.125 0.125 1 0.125 0.125 0 0.25 0.125 0.125 0.25 0.125 0.25 0.25 0.125 0.375 0.25 0.125 0.5 0.25 0.125 0.625 0.25 0.125 0.75 0.25 0.125 0.875 0.25 0.125 1 0.25 0.125 0 0.375 0.125 0.125 0.375 0.125 0.25 0.375 0.125 0.375 0.375 0.125 0.5 0.375 0.125 0.625 0.375 0.125 0.75 0.375 0.125 0.875 0.375 0.125 1 0.375 0.125 0 0.5 0.125 0.125 0.5 0.125 0.25 0.5 0.125 0.375 0.5 0.125 0.5 0.5 0.125 0.625 0.5 0.125 0.75 0.5 0.125 0.875 0.5 0.125 1 0.5 0.125 0 0.625 0.125 0.125 0.625 0.125 0.25 0.625 0.125 0.375 0.625 0.125 0.5 0.625 0.125 0.625 0.625 0.125 0.75 0.625 0.125 0.875 0.625 0.125 1 0.625 0.125 0 0.75 0.125 0.125 0.75 0.125 0.25 0.75 0.125 0.375 0.75 0.125 0.5 0.75 0.125 0.625 0.75 0.125 0.75 0.75 0.125 0.875 0.75 0.125 1 0.75 0.125 0 0.875 0.125 0.125 0.875 0.125 0.25 0.875 0.125 0.375 0.875 0.125 0.5 0.875 0.125 0.625 0.875 0.125 0.75 0.875 0.125 0.875 0.875 0.125 1 0.875 0.125 0 1 0.125 0.125 1 0.125 0.25 1 0.125 0.375 1 0.125 0.5 1 0.125 0.625 1 0.125 0.75 1 0.125 0.875 1 0.125 1 1 0.125 0 0 0.25 0.125 0 0.25 0.25 0 0.25 0.375 0 0.25 0.5 0 0.25 0.625 0 0.25 0.75 0 0.25 0.875 0 0.25 1 0 0.25 0 0.125 0.25 0.125 0.125 0.25 0.25 0.125 0.25 0.375 0.125 0.25 0.5 0.125 0.25 0.625 0.125 0.25 0.75 0.125 0.25 0.875 0.125 0.25 1 0.125 0.25 0 0.25 0.25 0.125 0.25 0.25 0.25 0.25 0.25 0.375 0.25 0.25 0.5 0.25 0.25 0.625 0.25 0.25 0.75 0.25 0.25 0.875 0.25 0.25 1 0.25 0.25 0 0.375 0.25 0.125 0.375 0.25 0.25 0.375 0.25 0.375 0.375 0.25 0.5 0.375 0.25 0.625 0.375 0.25 0.75 0.375 0.25 0.875 0.375 0.25 1 0.375 0.25 0 0.5 0.25 0.125 0.5 0.25 0.25 0.5 0.25 0.375 0.5 0.25 0.5 0.5 0.25 0.625 0.5 0.25 0.75 0.5 0.25 0.875 0.5 0.25 1 0.5 0.25 0 0.625 0.25 0.125 0.625 0.25 0.25 0.625 0.25 0.375 0.625 0.25 0.5 0.625 0.25 0.625 0.625 0.25 0.75 0.625 0.25 0.875 0.625 0.25 1 0.625 0.25 0 0.75 0.25 0.125 0.75 0.25 0.25 0.75 0.25 0.375 0.75 0.25 0.5 0.75 0.25 0.625 0.75 0.25 0.75 0.75 0.25 0.875 0.75 0.25 1 0.75 0.25 0 0.875 0.25 0.125 0.875 0.25 0.25 0.875 0.25 0.375 0.875 0.25 0.5 0.875 0.25 0.625 0.875 0.25 0.75 0.875 0.25 0.875 0.875 0.25 1 0.875 0.25 0 1 0.25 0.125 1 0.25 0.25 1 0.25 0.375 1 0.25 0.5 1 0.25 0.625 1 0.25 0.75 1 0.25 0.875 1 0.25 1 1 0.25 0 0 0.375 0.125 0 0.375 0.25 0 0.375 0.375 0 0.375 0.5 0 0.375 0.625 0 0.375 0.75 0 0.375 0.875 0 0.375 1 0 0.375 0 0.125 0.375 0.125 0.125 0.375 0.25 0.125 0.375 0.375 0.125 0.375 0.5 0.125 0.375 0.625 0.125 0.375 0.75 0.125 0.375 0.875 0.125 0.375 1 0.125 0.375 0 0.25 0.375 0.125 0.25 0.375 0.25 0.25 0.375 0.375 0.25 0.375 0.5 0.25 0.375 0.625 0.25 0.375 0.75 0.25 0.375 0.875 0.25 0.375 1 0.25 0.375 0 0.375 0.375 0.125 0.375 0.375 0.25 0.375 0.375 0.375 0.375 0.375 0.5 0.375 0.375 0.625 0.375 0.375 0.75 0.375 0.375 0.875 0.375 0.375 1 0.375 0.375 0 0.5 0.375 0.125 0.5 0.375 0.25 0.5 0.375 0.375 0.5 0.375 0.5 0.5 0.375 0.625 0.5 0.375 0.75 0.5 0.375 0.875 0.5 0.375 1 0.5 0.375 0 0.625 0.375 0.125 0.625 0.375 0.25 0.625 0.375 0.375 0.625 0.375 0.5 0.625 0.375 0.625 0.625 0.375 0.75 0.625 0.375 0.875 0.625 0.375 1 0.625 0.375 0 0.75 0.375 0.125 0.75 0.375 0.25 0.75 0.375 0.375 0.75 0.375 0.5 0.75 0.375 0.625 0.75 0.375 0.75 0.75 0.375 0.875 0.75 0.375 1 0.75 0.375 0 0.875 0.375 0.125 0.875 0.375 0.25 0.875 0.375 0.375 0.875 0.375 0.5 0.875 0.375 0.625 0.875 0.375 0.75 0.875 0.375 0.875 0.875 0.375 1 0.875 0.375 0 1 0.375 0.125 1 0.375 0.25 1 0.375 0.375 1 0.375 0.5 1 0.375 0.625 1 0.375 0.75 1 0.375 0.875 1 0.375 1 1 0.375 0 0 0.5 0.125 0 0.5 0.25 0 0.5 0.375 0 0.5 0.5 0 0.5 0.625 0 0.5 0.75 0 0.5 0.875 0 0.5 1 0 0.5 0 0.125 0.5 0.125 0.125 0.5 0.25 0.125 0.5 0.375 0.125 0.5 0.5 0.125 0.5 0.625 0.125 0.5 0.75 0.125 0.5 0.875 0.125 0.5 1 0.125 0.5 0 0.25 0.5 0.125 0.25 0.5 0.25 0.25 0.5 0.375 0.25 0.5 0.5 0.25 0.5 0.625 0.25 0.5 0.75 0.25 0.5 0.875 0.25 0.5 1 0.25 0.5 0 0.375 0.5 0.125 0.375 0.5 0.25 0.375 0.5 0.375 0.375 0.5 0.5 0.375 0.5 0.625 0.375 0.5 0.75 0.375 0.5 0.875 0.375 0.5 1 0.375 0.5 0 0.5 0.5 0.125 0.5 0.5 0.25 0.5 0.5 0.375 0.5 0.5 0.5 0.5 0.5 0.625 0.5 0.5 0.75 0.5 0.5 0.875 0.5 0.5 1 0.5 0.5 0 0.625 0.5 0.125 0.625 0.5 0.25 0.625 0.5 0.375 0.625 0.5 0.5 0.625 0.5 0.625 0.625 0.5 0.75 0.625 0.5 0.875 0.625 0.5 1 0.625 0.5 0 0.75 0.5 0.125 0.75 0.5 0.25 0.75 0.5 0.375 0.75 0.5 0.5 0.75 0.5 0.625 0.75 0.5 0.75 0.75 0.5 0.875 0.75 0.5 1 0.75 0.5 0 0.875 0.5 0.125 0.875 0.5 0.25 0.875 0.5 0.375 0.875 0.5 0.5 0.875 0.5 0.625 0.875 0.5 0.75 0.875 0.5 0.875 0.875 0.5 1 0.875 0.5 0 1 0.5 0.125 1 0.5 0.25 1 0.5 0.375 1 0.5 0.5 1 0.5 0.625 1 0.5 0.75 1 0.5 0.875 1 0.5 1 1 0.5 0 0 0.625 0.125 0 0.625 0.25 0 0.625 0.375 0 0.625 0.5 0 0.625 0.625 0 0.625 0.75 0 0.625 0.875 0 0.625 1 0 0.625 0 0.125 0.625 0.125 0.125 0.625 0.25 0.125 0.625 0.375 0.125 0.625 0.5 0.125 0.625 0.625 0.125 0.625 0.75 0.125 0.625 0.875 0.125 0.625 1 0.125 0.625 0 0.25 0.625 0.125 0.25 0.625 0.25 0.25 0.625 0.375 0.25 0.625 0.5 0.25 0.625 0.625 0.25 0.625 0.75 0.25 0.625 0.875 0.25 0.625 1 0.25 0.625 0 0.375 0.625 0.125 0.375 0.625 0.25 0.375 0.625 0.375 0.375 0.625 0.5 0.375 0.625 0.625 0.375 0.625 0.75 0.375 0.625 0.875 0.375 0.625 1 0.375 0.625 0 0.5 0.625 0.125 0.5 0.625 0.25 0.5 0.625 0.375 0.5 0.625 0.5 0.5 0.625 0.625 0.5 0.625 0.75 0.5 0.625 0.875 0.5 0.625 1 0.5 0.625 0 0.625 0.625 0.125 0.625 0.625 0.25 0.625 0.625 0.375 0.625 0.625 0.5 0.625 0.625 0.625 0.625 0.625 0.75 0.625 0.625 0.875 0.625 0.625 1 0.625 0.625 0 0.75 0.625 0.125 0.75 0.625 0.25 0.75 0.625 0.375 0.75 0.625 0.5 0.75 0.625 0.625 0.75 0.625 0.75 0.75 0.625 0.875 0.75 0.625 1 0.75 0.625 0 0.875 0.625 0.125 0.875 0.625 0.25 0.875 0.625 0.375 0.875 0.625 0.5 0.875 0.625 0.625 0.875 0.625 0.75 0.875 0.625 0.875 0.875 0.625 1 0.875 0.625 0 1 0.625 0.125 1 0.625 0.25 1 0.625 0.375 1 0.625 0.5 1 0.625 0.625 1 0.625 0.75 1 0.625 0.875 1 0.625 1 1 0.625 0 0 0.75 0.125 0 0.75 0.25 0 0.75 0.375 0 0.75 0.5 0 0.75 0.625 0 0.75 0.75 0 0.75 0.875 0 0.75 1 0 0.75 0 0.125 0.75 0.125 0.125 0.75 0.25 0.125 0.75 0.375 0.125 0.75 0.5 0.125 0.75 0.625 0.125 0.75 0.75 0.125 0.75 0.875 0.125 0.75 1 0.125 0.75 0 0.25 0.75 0.125 0.25 0.75 0.25 0.25 0.75 0.375 0.25 0.75 0.5 0.25 0.75 0.625 0.25 0.75 0.75 0.25 0.75 0.875 0.25 0.75 1 0.25 0.75 0 0.375 0.75 0.125 0.375 0.75 0.25 0.375 0.75 0.375 0.375 0.75 0.5 0.375 0.75 0.625 0.375 0.75 0.75 0.375 0.75 0.875 0.375 0.75 1 0.375 0.75 0 0.5 0.75 0.125 0.5 0.75 0.25 0.5 0.75 0.375 0.5 0.75 0.5 0.5 0.75 0.625 0.5 0.75 0.75 0.5 0.75 0.875 0.5 0.75 1 0.5 0.75 0 0.625 0.75 0.125 0.625 0.75 0.25 0.625 0.75 0.375 0.625 0.75 0.5 0.625 0.75 0.625 0.625 0.75 0.75 0.625 0.75 0.875 0.625 0.75 1 0.625 0.75 0 0.75 0.75 0.125 0.75 0.75 0.25 0.75 0.75 0.375 0.75 0.75 0.5 0.75 0.75 0.625 0.75 0.75 0.75 0.75 0.75 0.875 0.75 0.75 1 0.75 0.75 0 0.875 0.75 0.125 0.875 0.75 0.25 0.875 0.75 0.375 0.875 0.75 0.5 0.875 0.75 0.625 0.875 0.75 0.75 0.875 0.75 0.875 0.875 0.75 1 0.875 0.75 0 1 0.75 0.125 1 0.75 0.25 1 0.75 0.375 1 0.75 0.5 1 0.75 0.625 1 0.75 0.75 1 0.75 0.875 1 0.75 1 1 0.75 0 0 0.875 0.125 0 0.875 0.25 0 0.875 0.375 0 0.875 0.5 0 0.875 0.625 0 0.875 0.75 0 0.875 0.875 0 0.875 1 0 0.875 0 0.125 0.875 0.125 0.125 0.875 0.25 0.125 0.875 0.375 0.125 0.875 0.5 0.125 0.875 0.625 0.125 0.875 0.75 0.125 0.875 0.875 0.125 0.875 1 0.125 0.875 0 0.25 0.875 0.125 0.25 0.875 0.25 0.25 0.875 0.375 0.25 0.875 0.5 0.25 0.875 0.625 0.25 0.875 0.75 0.25 0.875 0.875 0.25 0.875 1 0.25 0.875 0 0.375 0.875 0.125 0.375 0.875 0.25 0.375 0.875 0.375 0.375 0.875 0.5 0.375 0.875 0.625 0.375 0.875 0.75 0.375 0.875 0.875 0.375 0.875 1 0.375 0.875 0 0.5 0.875 0.125 0.5 0.875 0.25 0.5 0.875 0.375 0.5 0.875 0.5 0.5 0.875 0.625 0.5 0.875 0.75 0.5 0.875 0.875 0.5 0.875 1 0.5 0.875 0 0.625 0.875 0.125 0.625 0.875 0.25 0.625 0.875 0.375 0.625 0.875 0.5 0.625 0.875 0.625 0.625 0.875 0.75 0.625 0.875 0.875 0.625 0.875 1 0.625 0.875 0 0.75 0.875 0.125 0.75 0.875 0.25 0.75 0.875 0.375 0.75 0.875 0.5 0.75 0.875 0.625 0.75 0.875 0.75 0.75 0.875 0.875 0.75 0.875 1 0.75 0.875 0 0.875 0.875 0.125 0.875 0.875 0.25 0.875 0.875 0.375 0.875 0.875 0.5 0.875 0.875 0.625 0.875 0.875 0.75 0.875 0.875 0.875 0.875 0.875 1 0.875 0.875 0 1 0.875 0.125 1 0.875 0.25 1 0.875 0.375 1 0.875 0.5 1 0.875 0.625 1 0.875 0.75 1 0.875 0.875 1 0.875 1 1 0.875 0 0 1 0.125 0 1 0.25 0 1 0.375 0 1 0.5 0 1 0.625 0 1 0.75 0 1 0.875 0 1 1 0 1 0 0.125 1 0.125 0.125 1 0.25 0.125 1 0.375 0.125 1 0.5 0.125 1 0.625 0.125 1 0.75 0.125 1 0.875 0.125 1 1 0.125 1 0 0.25 1 0.125 0.25 1 0.25 0.25 1 0.375 0.25 1 0.5 0.25 1 0.625 0.25 1 0.75 0.25 1 0.875 0.25 1 1 0.25 1 0 0.375 1 0.125 0.375 1 0.25 0.375 1 0.375 0.375 1 0.5 0.375 1 0.625 0.375 1 0.75 0.375 1 0.875 0.375 1 1 0.375 1 0 0.5 1 0.125 0.5 1 0.25 0.5 1 0.375 0.5 1 0.5 0.5 1 0.625 0.5 1 0.75 0.5 1 0.875 0.5 1 1 0.5 1 0 0.625 1 0.125 0.625 1 0.25 0.625 1 0.375 0.625 1 0.5 0.625 1 0.625 0.625 1 0.75 0.625 1 0.875 0.625 1 1 0.625 1 0 0.75 1 0.125 0.75 1 0.25 0.75 1 0.375 0.75 1 0.5 0.75 1 0.625 0.75 1 0.75 0.75 1 0.875 0.75 1 1 0.75 1 0 0.875 1 0.125 0.875 1 0.25 0.875 1 0.375 0.875 1 0.5 0.875 1 0.625 0.875 1 0.75 0.875 1 0.875 0.875 1 1 0.875 1 0 1 1 0.125 1 1 0.25 1 1 0.375 1 1 0.5 1 1 0.625 1 1 0.75 1 1 0.875 1 1 1 1 1         </DataArray>
      </Points>
    </Piece>
  </StructuredGrid>
</VTKFile>
