# vtk DataFile Version 2.0
Reconstructed linear interface
ASCII
DATASET POLYDATA
POINTS 3616 float
0.617188 0.257435 0
0.614939 0.257812 0
0.614939 0.257812 -0.0078125
0.617188 0.257435 -0.0078125
0.625 0.255952 -0.0078125
0.625 0.255952 0
0.617188 0.257479 0
0.617188 0.257479 -0.0078125
0.632812 0.254151 -0.0078125
0.632812 0.254151 0
0.625 0.255967 0
0.625 0.255967 -0.0078125
0.617188 0.257435 0.0078125
0.614939 0.257812 0.0078125
0.614939 0.257812 0
0.617188 0.257435 0
0.625 0.255952 0
0.625 0.255952 0.0078125
0.617188 0.257479 0.0078125
0.617188 0.257479 0
0.632812 0.254151 0
0.632812 0.254151 0.0078125
0.625 0.255967 0.0078125
0.625 0.255967 0
0.617188 0.257435 0.015625
0.614939 0.257812 0.015625
0.614939 0.257812 0.0078125
0.617188 0.257435 0.0078125
0.625 0.255952 0.0078125
0.625 0.255952 0.015625
0.617188 0.257479 0.015625
0.617188 0.257479 0.0078125
0.632812 0.254151 0.0078125
0.632812 0.254151 0.015625
0.625 0.255967 0.015625
0.625 0.255967 0.0078125
0.617188 0.257435 0.0234375
0.614939 0.257812 0.0234375
0.614939 0.257812 0.015625
0.617188 0.257435 0.015625
0.625 0.255952 0.015625
0.625 0.255952 0.0234375
0.617188 0.257479 0.0234375
0.617188 0.257479 0.015625
0.632812 0.254151 0.015625
0.632812 0.254151 0.0234375
0.625 0.255967 0.0234375
0.625 0.255967 0.015625
0.617188 0.257435 0
0.614939 0.257812 0
0.614939 0.257812 -0.0078125
0.617188 0.257435 -0.0078125
0.625 0.255952 -0.0078125
0.625 0.255952 0
0.617188 0.257479 0
0.617188 0.257479 -0.0078125
0.632812 0.254151 -0.0078125
0.632812 0.254151 0
0.625 0.255967 0
0.625 0.255967 -0.0078125
0.585938 0.263837 0
0.583311 0.265625 0
0.583311 0.265625 -0.0078125
0.585938 0.263837 -0.0078125
0.59375 0.26099 -0.0078125
0.59375 0.26099 0
0.585938 0.263987 0
0.585938 0.263987 -0.0078125
0.59375 0.261361 -0.0078125
0.59375 0.261361 0
0.601562 0.259787 0
0.601562 0.259787 -0.0078125
0.601562 0.259954 -0.0078125
0.601562 0.259954 0
0.609375 0.258724 0
0.609375 0.258724 -0.0078125
0.609375 0.258777 0
0.615119 0.257812 0
0.615119 0.257812 -0.0078125
0.609375 0.258777 -0.0078125
0.576546 0.273438 0
0.578125 0.27036 0
0.578125 0.27036 -0.0078125
0.576546 0.273438 -0.0078125
0.582099 0.265625 0
0.578125 0.270517 0
0.578125 0.270517 -0.0078125
0.582099 0.265625 -0.0078125
0.577248 0.273438 -0.0078125
0.577248 0.273438 0
0.577984 0.28125 0
0.577984 0.28125 -0.0078125
0.578204 0.28125 0
0.578125 0.280408 0
0.578125 0.280408 -0.0078125
0.578204 0.28125 -0.0078125
0.577561 0.28125 0
0.578125 0.282457 0
0.578125 0.282457 -0.0078125
0.577561 0.28125 -0.0078125
0.582632 0.289062 -0.0078125
0.582632 0.289062 0
0.578517 0.28125 0
0.578517 0.28125 -0.0078125
0.582455 0.289062 0
0.585938 0.293637 0
0.585938 0.293637 -0.0078125
0.582455 0.289062 -0.0078125
0.589507 0.296875 0
0.585938 0.292794 0
0.585938 0.292794 -0.0078125
0.589507 0.296875 -0.0078125
0.59375 0.301215 -0.0078125
0.588984 0.296875 -0.0078125
0.588984 0.296875 0
0.59375 0.301215 0
0.59375 0.300724 0
0.599048 0.304688 0
0.599048 0.304688 -0.0078125
0.59375 0.300724 -0.0078125
0.601562 0.306867 0
0.598397 0.304688 0
0.598397 0.304688 -0.0078125
0.601562 0.306867 -0.0078125
0.601562 0.306534 -0.0078125
0.601562 0.306534 0
0.609375 0.311378 0
0.609375 0.311378 -0.0078125
0.609375 0.311405 0
0.61154 0.3125 0
0.61154 0.3125 -0.0078125
0.609375 0.311405 -0.0078125
0.617188 0.315483 0
0.611289 0.3125 0
0.611289 0.3125 -0.0078125
0.617188 0.315483 -0.0078125
0.617188 0.315222 -0.0078125
0.617188 0.315222 0
0.625 0.318495 0
0.625 0.318495 -0.0078125
0.625 0.31857 0
0.629782 0.320312 0
0.629782 0.320312 -0.0078125
0.625 0.31857 -0.0078125
0.632812 0.321486 0
0.629592 0.320312 0
0.629592 0.320312 -0.0078125
0.632812 0.321486 -0.0078125
0.617188 0.257435 0.0078125
0.614939 0.257812 0.0078125
0.614939 0.257812 0
0.617188 0.257435 0
0.625 0.255952 0
0.625 0.255952 0.0078125
0.617188 0.257479 0.0078125
0.617188 0.257479 0
0.632812 0.254151 0
0.632812 0.254151 0.0078125
0.625 0.255967 0.0078125
0.625 0.255967 0
0.585938 0.263837 0.0078125
0.583311 0.265625 0.0078125
0.583311 0.265625 0
0.585938 0.263837 0
0.59375 0.26099 0
0.59375 0.26099 0.0078125
0.585938 0.263987 0.0078125
0.585938 0.263987 0
0.59375 0.261361 0
0.59375 0.261361 0.0078125
0.601562 0.259787 0.0078125
0.601562 0.259787 0
0.601562 0.259954 0
0.601562 0.259954 0.0078125
0.609375 0.258724 0.0078125
0.609375 0.258724 0
0.609375 0.258777 0.0078125
0.615119 0.257812 0.0078125
0.615119 0.257812 0
0.609375 0.258777 0
0.576546 0.273438 0.0078125
0.578125 0.27036 0.0078125
0.578125 0.27036 0
0.576546 0.273438 0
0.582099 0.265625 0.0078125
0.578125 0.270517 0.0078125
0.578125 0.270517 0
0.582099 0.265625 0
0.577248 0.273438 0
0.577248 0.273438 0.0078125
0.577984 0.28125 0.0078125
0.577984 0.28125 0
0.578204 0.28125 0.0078125
0.578125 0.280408 0.0078125
0.578125 0.280408 0
0.578204 0.28125 0
0.577561 0.28125 0.0078125
0.578125 0.282457 0.0078125
0.578125 0.282457 0
0.577561 0.28125 0
0.582632 0.289062 0
0.582632 0.289062 0.0078125
0.578517 0.28125 0.0078125
0.578517 0.28125 0
0.582455 0.289062 0.0078125
0.585938 0.293637 0.0078125
0.585938 0.293637 0
0.582455 0.289062 0
0.589507 0.296875 0.0078125
0.585938 0.292794 0.0078125
0.585938 0.292794 0
0.589507 0.296875 0
0.59375 0.301215 0
0.588984 0.296875 0
0.588984 0.296875 0.0078125
0.59375 0.301215 0.0078125
0.59375 0.300724 0.0078125
0.599048 0.304688 0.0078125
0.599048 0.304688 0
0.59375 0.300724 0
0.601562 0.306867 0.0078125
0.598397 0.304688 0.0078125
0.598397 0.304688 0
0.601562 0.306867 0
0.601562 0.306534 0
0.601562 0.306534 0.0078125
0.609375 0.311378 0.0078125
0.609375 0.311378 0
0.609375 0.311405 0.0078125
0.61154 0.3125 0.0078125
0.61154 0.3125 0
0.609375 0.311405 0
0.617188 0.315483 0.0078125
0.611289 0.3125 0.0078125
0.611289 0.3125 0
0.617188 0.315483 0
0.617188 0.315222 0
0.617188 0.315222 0.0078125
0.625 0.318495 0.0078125
0.625 0.318495 0
0.625 0.31857 0.0078125
0.629782 0.320312 0.0078125
0.629782 0.320312 0
0.625 0.31857 0
0.632812 0.321486 0.0078125
0.629592 0.320312 0.0078125
0.629592 0.320312 0
0.632812 0.321486 0
0.617188 0.257435 0.015625
0.614939 0.257812 0.015625
0.614939 0.257812 0.0078125
0.617188 0.257435 0.0078125
0.625 0.255952 0.0078125
0.625 0.255952 0.015625
0.617188 0.257479 0.015625
0.617188 0.257479 0.0078125
0.632812 0.254151 0.0078125
0.632812 0.254151 0.015625
0.625 0.255967 0.015625
0.625 0.255967 0.0078125
0.585938 0.263837 0.015625
0.583311 0.265625 0.015625
0.583311 0.265625 0.0078125
0.585938 0.263837 0.0078125
0.59375 0.26099 0.0078125
0.59375 0.26099 0.015625
0.585938 0.263987 0.015625
0.585938 0.263987 0.0078125
0.59375 0.261361 0.0078125
0.59375 0.261361 0.015625
0.601562 0.259787 0.015625
0.601562 0.259787 0.0078125
0.601562 0.259954 0.0078125
0.601562 0.259954 0.015625
0.609375 0.258724 0.015625
0.609375 0.258724 0.0078125
0.609375 0.258777 0.015625
0.615119 0.257812 0.015625
0.615119 0.257812 0.0078125
0.609375 0.258777 0.0078125
0.576546 0.273438 0.015625
0.578125 0.27036 0.015625
0.578125 0.27036 0.0078125
0.576546 0.273438 0.0078125
0.582099 0.265625 0.015625
0.578125 0.270517 0.015625
0.578125 0.270517 0.0078125
0.582099 0.265625 0.0078125
0.577248 0.273438 0.0078125
0.577248 0.273438 0.015625
0.577984 0.28125 0.015625
0.577984 0.28125 0.0078125
0.578204 0.28125 0.015625
0.578125 0.280408 0.015625
0.578125 0.280408 0.0078125
0.578204 0.28125 0.0078125
0.577561 0.28125 0.015625
0.578125 0.282457 0.015625
0.578125 0.282457 0.0078125
0.577561 0.28125 0.0078125
0.582632 0.289062 0.0078125
0.582632 0.289062 0.015625
0.578517 0.28125 0.015625
0.578517 0.28125 0.0078125
0.582455 0.289062 0.015625
0.585938 0.293637 0.015625
0.585938 0.293637 0.0078125
0.582455 0.289062 0.0078125
0.589507 0.296875 0.015625
0.585938 0.292794 0.015625
0.585938 0.292794 0.0078125
0.589507 0.296875 0.0078125
0.59375 0.301215 0.0078125
0.588984 0.296875 0.0078125
0.588984 0.296875 0.015625
0.59375 0.301215 0.015625
0.59375 0.300724 0.015625
0.599048 0.304688 0.015625
0.599048 0.304688 0.0078125
0.59375 0.300724 0.0078125
0.601562 0.306867 0.015625
0.598397 0.304688 0.015625
0.598397 0.304688 0.0078125
0.601562 0.306867 0.0078125
0.601562 0.306534 0.0078125
0.601562 0.306534 0.015625
0.609375 0.311378 0.015625
0.609375 0.311378 0.0078125
0.609375 0.311405 0.015625
0.61154 0.3125 0.015625
0.61154 0.3125 0.0078125
0.609375 0.311405 0.0078125
0.617188 0.315483 0.015625
0.611289 0.3125 0.015625
0.611289 0.3125 0.0078125
0.617188 0.315483 0.0078125
0.617188 0.315222 0.0078125
0.617188 0.315222 0.015625
0.625 0.318495 0.015625
0.625 0.318495 0.0078125
0.625 0.31857 0.015625
0.629782 0.320312 0.015625
0.629782 0.320312 0.0078125
0.625 0.31857 0.0078125
0.632812 0.321486 0.015625
0.629592 0.320312 0.015625
0.629592 0.320312 0.0078125
0.632812 0.321486 0.0078125
0.617188 0.257435 0.0234375
0.614939 0.257812 0.0234375
0.614939 0.257812 0.015625
0.617188 0.257435 0.015625
0.625 0.255952 0.015625
0.625 0.255952 0.0234375
0.617188 0.257479 0.0234375
0.617188 0.257479 0.015625
0.632812 0.254151 0.015625
0.632812 0.254151 0.0234375
0.625 0.255967 0.0234375
0.625 0.255967 0.015625
0.585938 0.263837 0.0234375
0.583311 0.265625 0.0234375
0.583311 0.265625 0.015625
0.585938 0.263837 0.015625
0.59375 0.26099 0.015625
0.59375 0.26099 0.0234375
0.585938 0.263987 0.0234375
0.585938 0.263987 0.015625
0.59375 0.261361 0.015625
0.59375 0.261361 0.0234375
0.601562 0.259787 0.0234375
0.601562 0.259787 0.015625
0.601562 0.259954 0.015625
0.601562 0.259954 0.0234375
0.609375 0.258724 0.0234375
0.609375 0.258724 0.015625
0.609375 0.258777 0.0234375
0.615119 0.257812 0.0234375
0.615119 0.257812 0.015625
0.609375 0.258777 0.015625
0.576546 0.273438 0.0234375
0.578125 0.27036 0.0234375
0.578125 0.27036 0.015625
0.576546 0.273438 0.015625
0.582099 0.265625 0.0234375
0.578125 0.270517 0.0234375
0.578125 0.270517 0.015625
0.582099 0.265625 0.015625
0.577248 0.273438 0.015625
0.577248 0.273438 0.0234375
0.577984 0.28125 0.0234375
0.577984 0.28125 0.015625
0.578204 0.28125 0.0234375
0.578125 0.280408 0.0234375
0.578125 0.280408 0.015625
[...]
CELL_DATA 904
SCALARS c float
LOOKUP_TABLE default
-967922
-967921
-967920
32078
32079
32080
1.03208e+06
1.03208e+06
1.03208e+06
2.03208e+06
2.03208e+06
2.03208e+06
-967922
-967921
-967920
-966926
-966925
-966924
-966923
-966922
-965927
-965926
-964927
-964926
-963927
-963926
-962926
-962925
-961925
-961924
-960924
-960923
-960922
-959922
-959921
-959920
-958920
32078
32079
32080
33074
33075
33076
33077
33078
34073
34074
35073
35074
36073
36074
37074
37075
38075
38076
39076
39077
39078
40078
40079
40080
41080
1.03208e+06
1.03208e+06
1.03208e+06
1.03307e+06
1.03308e+06
1.03308e+06
1.03308e+06
1.03308e+06
1.03407e+06
1.03407e+06
1.03507e+06
1.03507e+06
1.03607e+06
1.03607e+06
1.03707e+06
1.03708e+06
1.03808e+06
1.03808e+06
1.03908e+06
1.03908e+06
1.03908e+06
1.04008e+06
1.04008e+06
1.04008e+06
1.04108e+06
2.03208e+06
2.03208e+06
2.03208e+06
2.03307e+06
2.03308e+06
2.03308e+06
2.03308e+06
2.03308e+06
2.03407e+06
2.03407e+06
2.03507e+06
2.03507e+06
2.03607e+06
2.03607e+06
2.03707e+06
2.03708e+06
2.03808e+06
2.03808e+06
2.03908e+06
2.03908e+06
2.03908e+06
2.04008e+06
2.04008e+06
2.04008e+06
2.04108e+06
-981904
-980904
-979905
-979904
-978905
-977906
-977905
-976907
-976906
-975908
-975907
-974909
-974908
-973910
-973909
-972911
-972910
-971912
-971911
-970913
-970912
-969915
-969914
-969913
-968918
-968917
-968916
-968915
-967921
-967920
-967919
-967918
18096
19096
20095
20096
21095
22094
22095
23093
23094
24092
24093
25091
25092
26090
26091
27089
27090
28088
28089
29087
29088
30085
30086
30087
31082
31083
31084
31085
32079
32080
32081
32082
1.0181e+06
1.0191e+06
1.0201e+06
1.0201e+06
1.0211e+06
1.02209e+06
1.0221e+06
1.02309e+06
1.02309e+06
1.02409e+06
1.02409e+06
1.02509e+06
1.02509e+06
1.02609e+06
1.02609e+06
1.02709e+06
1.02709e+06
1.02809e+06
1.02809e+06
1.02909e+06
1.02909e+06
1.03008e+06
1.03009e+06
1.03009e+06
1.03108e+06
1.03108e+06
1.03108e+06
1.03108e+06
1.03208e+06
1.03208e+06
1.03208e+06
1.03208e+06
2.0181e+06
2.0191e+06
2.0201e+06
2.0201e+06
2.0211e+06
2.02209e+06
2.0221e+06
2.02309e+06
2.02309e+06
2.02409e+06
2.02409e+06
2.02509e+06
2.02509e+06
2.02609e+06
2.02609e+06
2.02709e+06
2.02709e+06
2.02809e+06
2.02809e+06
2.02909e+06
2.02909e+06
2.03008e+06
2.03009e+06
2.03009e+06
2.03108e+06
2.03108e+06
2.03108e+06
2.03108e+06
2.03208e+06
2.03208e+06
2.03208e+06
2.03208e+06
-968918
-968917
-968916
-968915
-967921
-967920
-967919
-967918
-959921
-959920
-958920
-958919
-958918
-958917
-958916
-957916
-957915
-957914
-957913
-957912
-957911
-957910
-957909
-957908
-957907
-957906
-957905
-957904
31082
31083
31084
31085
32079
32080
32081
32082
40079
40080
41080
41081
41082
41083
41084
42084
42085
42086
42087
42088
42089
42090
42091
42092
42093
42094
42095
42096
1.03108e+06
1.03108e+06
1.03108e+06
1.03108e+06
1.03208e+06
1.03208e+06
1.03208e+06
1.03208e+06
1.04008e+06
1.04008e+06
1.04108e+06
1.04108e+06
1.04108e+06
1.04108e+06
1.04108e+06
1.04208e+06
1.04208e+06
1.04209e+06
1.04209e+06
1.04209e+06
1.04209e+06
1.04209e+06
1.04209e+06
1.04209e+06
1.04209e+06
1.04209e+06
1.0421e+06
1.0421e+06
2.03108e+06
2.03108e+06
2.03108e+06
2.03108e+06
2.03208e+06
2.03208e+06
2.03208e+06
2.03208e+06
2.04008e+06
2.04008e+06
2.04108e+06
2.04108e+06
2.04108e+06
2.04108e+06
2.04108e+06
2.04208e+06
2.04208e+06
2.04209e+06
2.04209e+06
2.04209e+06
2.04209e+06
2.04209e+06
2.04209e+06
2.04209e+06
2.04209e+06
2.04209e+06
2.0421e+06
2.0421e+06
-1.0019e+06
-1.0009e+06
-999899
-998899
-997899
-996899
-995900
-995899
-994900
-993900
-992900
-991900
-990900
-989901
-989900
-988901
-987901
-986902
-986901
-985902
-984902
-983903
-983902
-1899
-899
101
1101
2101
3101
4100
4101
5100
6100
7100
8100
9100
10099
10100
11099
12099
13098
13099
14098
15098
16097
16098
998101
999101
1.0001e+06
1.0011e+06
1.0021e+06
1.0031e+06
1.0041e+06
1.0041e+06
1.0051e+06
1.0061e+06
1.0071e+06
1.0081e+06
1.0091e+06
1.0101e+06
1.0101e+06
1.0111e+06
1.0121e+06
1.0131e+06
1.0131e+06
1.0141e+06
1.0151e+06
1.0161e+06
1.0161e+06
1.9981e+06
1.9991e+06
2.0001e+06
2.0011e+06
2.0021e+06
2.0031e+06
2.0041e+06
2.0041e+06
2.0051e+06
2.0061e+06
2.0071e+06
2.0081e+06
2.0091e+06
2.0101e+06
2.0101e+06
2.0111e+06
2.0121e+06
2.0131e+06
2.0131e+06
2.0141e+06
2.0151e+06
2.0161e+06
2.0161e+06
-984902
-983903
-983902
-982903
-981904
-981903
-980904
-979905
-979904
-978905
-977905
15098
16097
16098
17097
18096
18097
19096
20095
20096
21095
22095
1.0151e+06
1.0161e+06
1.0161e+06
1.0171e+06
1.0181e+06
1.0181e+06
1.0191e+06
1.0201e+06
1.0201e+06
1.0211e+06
1.0221e+06
2.0151e+06
2.0161e+06
2.0161e+06
2.0171e+06
2.0181e+06
2.0181e+06
2.0191e+06
2.0201e+06
2.0201e+06
2.0211e+06
2.0221e+06
-962888
-961891
-961890
-961889
-961888
-960894
-960893
-960892
-960891
-959897
-959896
-959895
-959894
-958903
-958902
-958901
-958900
-958899
-958898
-958897
-957905
-957904
-957903
37112
38109
38110
38111
38112
39106
39107
39108
39109
40103
40104
40105
40106
41097
41098
41099
41100
41101
41102
41103
42095
42096
42097
1.03711e+06
1.03811e+06
1.03811e+06
1.03811e+06
1.03811e+06
1.03911e+06
1.03911e+06
1.03911e+06
1.03911e+06
1.0401e+06
1.0401e+06
1.0401e+06
1.04011e+06
1.0411e+06
1.0411e+06
1.0411e+06
1.0411e+06
1.0411e+06
1.0411e+06
1.0411e+06
1.0421e+06
1.0421e+06
1.0421e+06
2.03711e+06
2.03811e+06
2.03811e+06
2.03811e+06
2.03811e+06
2.03911e+06
2.03911e+06
2.03911e+06
2.03911e+06
2.0401e+06
2.0401e+06
2.0401e+06
2.04011e+06
2.0411e+06
2.0411e+06
2.0411e+06
2.0411e+06
2.0411e+06
2.0411e+06
2.0411e+06
2.0421e+06
2.0421e+06
2.0421e+06
-972872
-971874
-971873
-971872
-970875
-970874
-969876
-969875
-968877
-968876
-967879
-967878
-967877
27128
28126
28127
28128
29125
29126
30124
30125
31123
31124
32121
32122
32123
1.02713e+06
1.02813e+06
1.02813e+06
1.02813e+06
1.02912e+06
1.02913e+06
1.03012e+06
1.03012e+06
1.03112e+06
1.03112e+06
1.03212e+06
1.03212e+06
1.03212e+06
2.02713e+06
2.02813e+06
2.02813e+06
2.02813e+06
2.02912e+06
2.02913e+06
2.03012e+06
2.03012e+06
2.03112e+06
2.03112e+06
2.03212e+06
2.03212e+06
2.03212e+06
-968877
-968876
-967879
-967878
-967877
-966880
-966879
-965882
-965881
-965880
-964884
-964883
-964882
-963886
-963885
-963884
-962888
-962887
-962886
-961889
-961888
31123
31124
32121
32122
32123
33120
33121
34118
34119
34120
35116
35117
35118
36114
36115
36116
37112
37113
37114
38111
38112
1.03112e+06
1.03112e+06
1.03212e+06
1.03212e+06
1.03212e+06
1.03312e+06
1.03312e+06
1.03412e+06
1.03412e+06
1.03412e+06
1.03512e+06
1.03512e+06
1.03512e+06
1.03611e+06
1.03612e+06
1.03612e+06
1.03711e+06
1.03711e+06
1.03711e+06
1.03811e+06
1.03811e+06
2.03112e+06
2.03112e+06
2.03212e+06
2.03212e+06
2.03212e+06
2.03312e+06
2.03312e+06
2.03412e+06
2.03412e+06
2.03412e+06
2.03512e+06
2.03512e+06
2.03512e+06
2.03611e+06
2.03612e+06
2.03612e+06
2.03711e+06
2.03711e+06
2.03711e+06
2.03811e+06
2.03811e+06
-1.00186e+06
-1.00086e+06
-999860
-998860
-997860
-996860
-995860
-994861
-994860
-993861
-992861
-991861
-990861
-989862
-989861
-988862
-987862
-986863
-986862
-985863
-984864
-984863
-983864
-1860
-860
140
1140
2140
3140
4140
5139
5140
6139
7139
8139
9139
10138
10139
11138
12138
13137
13138
14137
15136
15137
16136
998140
999140
1.00014e+06
1.00114e+06
1.00214e+06
1.00314e+06
1.00414e+06
1.00514e+06
1.00514e+06
1.00614e+06
1.00714e+06
1.00814e+06
1.00914e+06
1.01014e+06
1.01014e+06
1.01114e+06
1.01214e+06
1.01314e+06
1.01314e+06
1.01414e+06
1.01514e+06
1.01514e+06
1.01614e+06
1.99814e+06
1.99914e+06
2.00014e+06
2.00114e+06
2.00214e+06
2.00314e+06
2.00414e+06
2.00514e+06
2.00514e+06
2.00614e+06
2.00714e+06
2.00814e+06
2.00914e+06
2.01014e+06
2.01014e+06
2.01114e+06
2.01214e+06
2.01314e+06
2.01314e+06
2.01414e+06
2.01514e+06
2.01514e+06
2.01614e+06
-984864
-984863
-983864
-982865
-982864
-981865
-980866
-980865
-979867
-979866
-978867
-977868
-977867
-976869
-976868
-975870
-975869
-974871
-974870
-973871
-972872
-972871
-971873
-971872
15136
15137
16136
17135
17136
18135
19134
19135
20133
20134
21133
22132
22133
23131
23132
24130
24131
25129
25130
26129
27128
27129
28127
28128
1.01514e+06
1.01514e+06
1.01614e+06
1.01714e+06
1.01714e+06
1.01814e+06
1.01913e+06
1.01914e+06
1.02013e+06
1.02013e+06
1.02113e+06
1.02213e+06
1.02213e+06
1.02313e+06
1.02313e+06
1.02413e+06
1.02413e+06
1.02513e+06
1.02513e+06
1.02613e+06
1.02713e+06
1.02713e+06
1.02813e+06
1.02813e+06
2.01514e+06
2.01514e+06
2.01614e+06
2.01714e+06
2.01714e+06
2.01814e+06
2.01913e+06
2.01914e+06
2.02013e+06
2.02013e+06
2.02113e+06
2.02213e+06
2.02213e+06
2.02313e+06
2.02313e+06
2.02413e+06
2.02413e+06
2.02513e+06
2.02513e+06
2.02613e+06
2.02713e+06
2.02713e+06
2.02813e+06
2.02813e+06
