# vtk DataFile Version 2.0
Reconstructed linear interface
ASCII
DATASET POLYDATA
POINTS 3168 float
0.50581 0.203125 0
0.507812 0.198511 0
0.507812 0.198511 -0.0078125
0.50581 0.203125 -0.0078125
0.503727 0.210938 -0.0078125
0.503727 0.210938 0
0.50583 0.203125 0
0.50583 0.203125 -0.0078125
0.503728 0.210938 0
0.503728 0.210938 -0.0078125
0.502856 0.21875 -0.0078125
0.502856 0.21875 0
0.503204 0.226562 -0.0078125
0.503204 0.226562 0
0.502863 0.21875 0
0.502863 0.21875 -0.0078125
0.503216 0.226562 0
0.503216 0.226562 -0.0078125
0.504733 0.234375 -0.0078125
0.504733 0.234375 0
0.504684 0.234375 -0.0078125
0.504684 0.234375 0
0.507448 0.242188 0
0.507448 0.242188 -0.0078125
0.50728 0.242188 0
0.507812 0.243221 0
0.507812 0.243221 -0.0078125
0.50728 0.242188 -0.0078125
0.50581 0.203125 0.0078125
0.507812 0.198511 0.0078125
0.507812 0.198511 0
0.50581 0.203125 0
0.503727 0.210938 0
0.503727 0.210938 0.0078125
0.50583 0.203125 0.0078125
0.50583 0.203125 0
0.503728 0.210938 0.0078125
0.503728 0.210938 0
0.502856 0.21875 0
0.502856 0.21875 0.0078125
0.503204 0.226562 0
0.503204 0.226562 0.0078125
0.502863 0.21875 0.0078125
0.502863 0.21875 0
0.503216 0.226562 0.0078125
0.503216 0.226562 0
0.504733 0.234375 0
0.504733 0.234375 0.0078125
0.504684 0.234375 0
0.504684 0.234375 0.0078125
0.507448 0.242188 0.0078125
0.507448 0.242188 0
0.50728 0.242188 0.0078125
0.507812 0.243221 0.0078125
0.507812 0.243221 0
0.50728 0.242188 0
0.50581 0.203125 0.015625
0.507812 0.198511 0.015625
0.507812 0.198511 0.0078125
0.50581 0.203125 0.0078125
0.503727 0.210938 0.0078125
0.503727 0.210938 0.015625
0.50583 0.203125 0.015625
0.50583 0.203125 0.0078125
0.503728 0.210938 0.015625
0.503728 0.210938 0.0078125
0.502856 0.21875 0.0078125
0.502856 0.21875 0.015625
0.503204 0.226562 0.0078125
0.503204 0.226562 0.015625
0.502863 0.21875 0.015625
0.502863 0.21875 0.0078125
0.503216 0.226562 0.015625
0.503216 0.226562 0.0078125
0.504733 0.234375 0.0078125
0.504733 0.234375 0.015625
0.504684 0.234375 0.0078125
0.504684 0.234375 0.015625
0.507448 0.242188 0.015625
0.507448 0.242188 0.0078125
0.50728 0.242188 0.015625
0.507812 0.243221 0.015625
0.507812 0.243221 0.0078125
0.50728 0.242188 0.0078125
0.50581 0.203125 0.0234375
0.507812 0.198511 0.0234375
0.507812 0.198511 0.015625
0.50581 0.203125 0.015625
0.503727 0.210938 0.015625
0.503727 0.210938 0.0234375
0.50583 0.203125 0.0234375
0.50583 0.203125 0.015625
0.503728 0.210938 0.0234375
0.503728 0.210938 0.015625
0.502856 0.21875 0.015625
0.502856 0.21875 0.0234375
0.503204 0.226562 0.015625
0.503204 0.226562 0.0234375
0.502863 0.21875 0.0234375
0.502863 0.21875 0.015625
0.503216 0.226562 0.0234375
0.503216 0.226562 0.015625
0.504733 0.234375 0.015625
0.504733 0.234375 0.0234375
0.504684 0.234375 0.015625
0.504684 0.234375 0.0234375
0.507448 0.242188 0.0234375
0.507448 0.242188 0.015625
0.50728 0.242188 0.0234375
0.507812 0.243221 0.0234375
0.507812 0.243221 0.015625
0.50728 0.242188 0.015625
0.50728 0.242188 0
0.507812 0.243221 0
0.507812 0.243221 -0.0078125
0.50728 0.242188 -0.0078125
0.50728 0.242188 0.0078125
0.507812 0.243221 0.0078125
0.507812 0.243221 0
0.50728 0.242188 0
0.50728 0.242188 0.015625
0.507812 0.243221 0.015625
0.507812 0.243221 0.0078125
0.50728 0.242188 0.0078125
0.50728 0.242188 0.0234375
0.507812 0.243221 0.0234375
0.507812 0.243221 0.015625
0.50728 0.242188 0.015625
0.632354 0.03125 0
0.632812 0.028758 0
0.632812 0.028758 -0.0078125
0.632354 0.03125 -0.0078125
0.630467 0.0390625 -0.0078125
0.630467 0.0390625 0
0.632333 0.03125 0
0.632333 0.03125 -0.0078125
0.628218 0.046875 0
0.628218 0.046875 -0.0078125
0.630463 0.0390625 -0.0078125
0.630463 0.0390625 0
0.628252 0.046875 -0.0078125
0.628252 0.046875 0
0.625569 0.0546875 0
0.625569 0.0546875 -0.0078125
0.62243 0.0625 0
0.625 0.0561378 0
0.625 0.0561378 -0.0078125
0.62243 0.0625 -0.0078125
0.625357 0.0546875 0
0.625 0.055572 0
0.625 0.055572 -0.0078125
0.625357 0.0546875 -0.0078125
0.622415 0.0625 -0.0078125
0.622415 0.0625 0
0.618784 0.0703125 0
0.618784 0.0703125 -0.0078125
0.614643 0.078125 0
0.617188 0.0733269 0
0.617188 0.0733269 -0.0078125
0.614643 0.078125 -0.0078125
0.618782 0.0703125 0
0.617188 0.0733185 0
0.617188 0.0733185 -0.0078125
0.618782 0.0703125 -0.0078125
0.614642 0.078125 -0.0078125
0.614642 0.078125 0
0.609982 0.0859375 0
0.609982 0.0859375 -0.0078125
0.604794 0.09375 0
0.609375 0.0868639 0
0.609375 0.0868639 -0.0078125
0.604794 0.09375 -0.0078125
0.609969 0.0859375 0
0.609375 0.0868799 0
0.609375 0.0868799 -0.0078125
0.609969 0.0859375 -0.0078125
0.599048 0.101562 0
0.601562 0.098141 0
0.601562 0.098141 -0.0078125
0.599048 0.101562 -0.0078125
0.604779 0.09375 0
0.601562 0.0981464 0
0.601562 0.0981464 -0.0078125
0.604779 0.09375 -0.0078125
0.592706 0.109375 -0.0078125
0.59375 0.10812 -0.0078125
0.59375 0.10812 0
0.592706 0.109375 0
0.59904 0.101562 0
0.59375 0.108087 0
0.59375 0.108087 -0.0078125
0.59904 0.101562 -0.0078125
0.585779 0.117188 0
0.585938 0.117015 0
0.585938 0.117015 -0.0078125
0.585779 0.117188 -0.0078125
0.592709 0.109375 0
0.585938 0.117012 0
0.585938 0.117012 -0.0078125
0.592709 0.109375 -0.0078125
0.585778 0.117188 -0.0078125
0.585778 0.117188 0
0.578266 0.125 0
0.578266 0.125 -0.0078125
0.570312 0.132671 -0.0078125
0.570162 0.132812 -0.0078125
0.570162 0.132812 0
0.570312 0.132671 0
0.578125 0.125118 -0.0078125
0.578125 0.125118 0
0.570312 0.132702 0
0.570312 0.132702 -0.0078125
0.578235 0.125 -0.0078125
0.578125 0.12511 -0.0078125
0.578125 0.12511 0
0.578235 0.125 0
0.632354 0.03125 0.0078125
0.632812 0.028758 0.0078125
0.632812 0.028758 0
0.632354 0.03125 0
0.630467 0.0390625 0
0.630467 0.0390625 0.0078125
0.632333 0.03125 0.0078125
0.632333 0.03125 0
0.628218 0.046875 0.0078125
0.628218 0.046875 0
0.630463 0.0390625 0
0.630463 0.0390625 0.0078125
0.628252 0.046875 0
0.628252 0.046875 0.0078125
0.625569 0.0546875 0.0078125
0.625569 0.0546875 0
0.62243 0.0625 0.0078125
0.625 0.0561378 0.0078125
0.625 0.0561378 0
0.62243 0.0625 0
0.625357 0.0546875 0.0078125
0.625 0.055572 0.0078125
0.625 0.055572 0
0.625357 0.0546875 0
0.622415 0.0625 0
0.622415 0.0625 0.0078125
0.618784 0.0703125 0.0078125
0.618784 0.0703125 0
0.614643 0.078125 0.0078125
0.617188 0.0733269 0.0078125
0.617188 0.0733269 0
0.614643 0.078125 0
0.618782 0.0703125 0.0078125
0.617188 0.0733185 0.0078125
0.617188 0.0733185 0
0.618782 0.0703125 0
0.614642 0.078125 0
0.614642 0.078125 0.0078125
0.609982 0.0859375 0.0078125
0.609982 0.0859375 0
0.604794 0.09375 0.0078125
0.609375 0.0868639 0.0078125
0.609375 0.0868639 0
0.604794 0.09375 0
0.609969 0.0859375 0.0078125
0.609375 0.0868799 0.0078125
0.609375 0.0868799 0
0.609969 0.0859375 0
0.599048 0.101562 0.0078125
0.601562 0.098141 0.0078125
0.601562 0.098141 0
0.599048 0.101562 0
0.604779 0.09375 0.0078125
0.601562 0.0981464 0.0078125
0.601562 0.0981464 0
0.604779 0.09375 0
0.592706 0.109375 0
0.59375 0.10812 0
0.59375 0.10812 0.0078125
0.592706 0.109375 0.0078125
0.59904 0.101562 0.0078125
0.59375 0.108087 0.0078125
0.59375 0.108087 0
0.59904 0.101562 0
0.585779 0.117188 0.0078125
0.585938 0.117015 0.0078125
0.585938 0.117015 0
0.585779 0.117188 0
0.592709 0.109375 0.0078125
0.585938 0.117012 0.0078125
0.585938 0.117012 0
0.592709 0.109375 0
0.585778 0.117188 0
0.585778 0.117188 0.0078125
0.578266 0.125 0.0078125
0.578266 0.125 0
0.570312 0.132671 0
0.570162 0.132812 0
0.570162 0.132812 0.0078125
0.570312 0.132671 0.0078125
0.578125 0.125118 0
0.578125 0.125118 0.0078125
0.570312 0.132702 0.0078125
0.570312 0.132702 0
0.578235 0.125 0
0.578125 0.12511 0
0.578125 0.12511 0.0078125
0.578235 0.125 0.0078125
0.632354 0.03125 0.015625
0.632812 0.028758 0.015625
0.632812 0.028758 0.0078125
0.632354 0.03125 0.0078125
0.630467 0.0390625 0.0078125
0.630467 0.0390625 0.015625
0.632333 0.03125 0.015625
0.632333 0.03125 0.0078125
0.628218 0.046875 0.015625
0.628218 0.046875 0.0078125
0.630463 0.0390625 0.0078125
0.630463 0.0390625 0.015625
0.628252 0.046875 0.0078125
0.628252 0.046875 0.015625
0.625569 0.0546875 0.015625
0.625569 0.0546875 0.0078125
0.62243 0.0625 0.015625
0.625 0.0561378 0.015625
0.625 0.0561378 0.0078125
0.62243 0.0625 0.0078125
0.625357 0.0546875 0.015625
0.625 0.055572 0.015625
0.625 0.055572 0.0078125
0.625357 0.0546875 0.0078125
0.622415 0.0625 0.0078125
0.622415 0.0625 0.015625
0.618784 0.0703125 0.015625
0.618784 0.0703125 0.0078125
0.614643 0.078125 0.015625
0.617188 0.0733269 0.015625
0.617188 0.0733269 0.0078125
0.614643 0.078125 0.0078125
0.618782 0.0703125 0.015625
0.617188 0.0733185 0.015625
0.617188 0.0733185 0.0078125
0.618782 0.0703125 0.0078125
0.614642 0.078125 0.0078125
0.614642 0.078125 0.015625
0.609982 0.0859375 0.015625
0.609982 0.0859375 0.0078125
0.604794 0.09375 0.015625
0.609375 0.0868639 0.015625
0.609375 0.0868639 0.0078125
0.604794 0.09375 0.0078125
0.609969 0.0859375 0.015625
0.609375 0.0868799 0.015625
0.609375 0.0868799 0.0078125
0.609969 0.0859375 0.0078125
0.599048 0.101562 0.015625
0.601562 0.098141 0.015625
0.601562 0.098141 0.0078125
0.599048 0.101562 0.0078125
0.604779 0.09375 0.015625
0.601562 0.0981464 0.015625
0.601562 0.0981464 0.0078125
0.604779 0.09375 0.0078125
0.592706 0.109375 0.0078125
0.59375 0.10812 0.0078125
0.59375 0.10812 0.015625
0.592706 0.109375 0.015625
0.59904 0.101562 0.015625
0.59375 0.108087 0.015625
0.59375 0.108087 0.0078125
0.59904 0.101562 0.0078125
0.585779 0.117188 0.015625
0.585938 0.117015 0.015625
0.585938 0.117015 0.0078125
0.585779 0.117188 0.0078125
0.592709 0.109375 0.015625
0.585938 0.117012 0.015625
0.585938 0.117012 0.0078125
0.592709 0.109375 0.0078125
0.585778 0.117188 0.0078125
0.585778 0.117188 0.015625
0.578266 0.125 0.015625
0.578266 0.125 0.0078125
0.570312 0.132671 0.0078125
0.570162 0.132812 0.0078125
0.570162 0.132812 0.015625
0.570312 0.132671 0.015625
0.578125 0.125118 0.0078125
0.578125 0.125118 0.015625
0.570312 0.132702 0.015625
0.570312 0.132702 0.0078125
0.578235 0.125 0.0078125
0.578125 0.12511 0.0078125
0.578125 0.12511 0.015625
0.578235 0.125 0.015625
[...]
CELL_DATA 792
SCALARS c float
LOOKUP_TABLE default
-974936
-973936
-972936
-971936
-970936
-969936
-968936
25064
26064
27064
28064
29064
30064
31064
1.02506e+06
1.02606e+06
1.02706e+06
1.02806e+06
1.02906e+06
1.03006e+06
1.03106e+06
2.02506e+06
2.02606e+06
2.02706e+06
2.02806e+06
2.02906e+06
2.03006e+06
2.03106e+06
-968936
31064
1.03106e+06
2.03106e+06
-996920
-995920
-994920
-993920
-992921
-992920
-991921
-990922
-990921
-989922
-988923
-988922
-987924
-987923
-986925
-986924
-985926
-985925
-984926
-983928
-983927
-983926
3080
4080
5080
6080
7079
7080
8079
9078
9079
10078
11077
11078
12076
12077
13075
13076
14074
14075
15074
16072
16073
16074
1.00308e+06
1.00408e+06
1.00508e+06
1.00608e+06
1.00708e+06
1.00708e+06
1.00808e+06
1.00908e+06
1.00908e+06
1.01008e+06
1.01108e+06
1.01108e+06
1.01208e+06
1.01208e+06
1.01308e+06
1.01308e+06
1.01407e+06
1.01408e+06
1.01507e+06
1.01607e+06
1.01607e+06
1.01607e+06
2.00308e+06
2.00408e+06
2.00508e+06
2.00608e+06
2.00708e+06
2.00708e+06
2.00808e+06
2.00908e+06
2.00908e+06
2.01008e+06
2.01108e+06
2.01108e+06
2.01208e+06
2.01208e+06
2.01308e+06
2.01308e+06
2.01407e+06
2.01408e+06
2.01507e+06
2.01607e+06
2.01607e+06
2.01607e+06
-984926
-983928
-983927
-983926
-982929
-982928
-981930
-981929
-980931
-980930
-979932
-979931
-978933
-978932
-977934
-977933
-976935
-976934
-975935
-974936
-974935
-973936
-972936
-971936
-970936
-969936
-968936
-968935
-967935
-967934
15074
16072
16073
16074
17071
17072
18070
18071
19069
19070
20068
20069
21067
21068
22066
22067
23065
23066
24065
25064
25065
26064
27064
28064
29064
30064
31064
31065
32065
32066
1.01507e+06
1.01607e+06
1.01607e+06
1.01607e+06
1.01707e+06
1.01707e+06
1.01807e+06
1.01807e+06
1.01907e+06
1.01907e+06
1.02007e+06
1.02007e+06
1.02107e+06
1.02107e+06
1.02207e+06
1.02207e+06
1.02306e+06
1.02307e+06
1.02406e+06
1.02506e+06
1.02506e+06
1.02606e+06
1.02706e+06
1.02806e+06
1.02906e+06
1.03006e+06
1.03106e+06
1.03106e+06
1.03206e+06
1.03207e+06
2.01507e+06
2.01607e+06
2.01607e+06
2.01607e+06
2.01707e+06
2.01707e+06
2.01807e+06
2.01807e+06
2.01907e+06
2.01907e+06
2.02007e+06
2.02007e+06
2.02107e+06
2.02107e+06
2.02207e+06
2.02207e+06
2.02306e+06
2.02307e+06
2.02406e+06
2.02506e+06
2.02506e+06
2.02606e+06
2.02706e+06
2.02806e+06
2.02906e+06
2.03006e+06
2.03106e+06
2.03106e+06
2.03206e+06
2.03207e+06
-968936
-968935
-967935
-967934
-966934
-966933
-965933
-965932
-964932
-964931
-963931
-963930
-963929
-962929
-962928
-962927
-962926
-962925
-961925
-961924
-961923
-961922
-961921
-961920
31064
31065
32065
32066
33066
33067
34067
34068
35068
35069
36069
36070
36071
37071
37072
37073
37074
37075
38075
38076
38077
38078
38079
38080
1.03106e+06
1.03106e+06
1.03206e+06
1.03207e+06
1.03307e+06
1.03307e+06
1.03407e+06
1.03407e+06
1.03507e+06
1.03507e+06
1.03607e+06
1.03607e+06
1.03607e+06
1.03707e+06
1.03707e+06
1.03707e+06
1.03707e+06
1.03708e+06
1.03808e+06
1.03808e+06
1.03808e+06
1.03808e+06
1.03808e+06
1.03808e+06
2.03106e+06
2.03106e+06
2.03206e+06
2.03207e+06
2.03307e+06
2.03307e+06
2.03407e+06
2.03407e+06
2.03507e+06
2.03507e+06
2.03607e+06
2.03607e+06
2.03607e+06
2.03707e+06
2.03707e+06
2.03707e+06
2.03707e+06
2.03708e+06
2.03808e+06
2.03808e+06
2.03808e+06
2.03808e+06
2.03808e+06
2.03808e+06
-1.00192e+06
-1.00092e+06
-999919
-998919
-997919
-996920
-996919
-995920
-994920
-993920
-992921
-992920
-991921
-990921
-1919
-919
81
1081
2081
3080
3081
4080
5080
6080
7079
7080
8079
9079
998081
999081
1.00008e+06
1.00108e+06
1.00208e+06
1.00308e+06
1.00308e+06
1.00408e+06
1.00508e+06
1.00608e+06
1.00708e+06
1.00708e+06
1.00808e+06
1.00908e+06
1.99808e+06
1.99908e+06
2.00008e+06
2.00108e+06
2.00208e+06
2.00308e+06
2.00308e+06
2.00408e+06
2.00508e+06
2.00608e+06
2.00708e+06
2.00708e+06
2.00808e+06
2.00908e+06
-964904
-963907
-963906
-963905
-963904
-962912
-962911
-962910
-962909
-962908
-962907
-961921
-961920
-961919
-961918
-961917
-961916
-961915
-961914
-961913
-961912
35096
36093
36094
36095
36096
37088
37089
37090
37091
37092
37093
38079
38080
38081
38082
38083
38084
38085
38086
38087
38088
1.0351e+06
1.03609e+06
1.03609e+06
1.0361e+06
1.0361e+06
1.03709e+06
1.03709e+06
1.03709e+06
1.03709e+06
1.03709e+06
1.03709e+06
1.03808e+06
1.03808e+06
1.03808e+06
1.03808e+06
1.03808e+06
1.03808e+06
1.03808e+06
1.03809e+06
1.03809e+06
1.03809e+06
2.0351e+06
2.03609e+06
2.03609e+06
2.0361e+06
2.0361e+06
2.03709e+06
2.03709e+06
2.03709e+06
2.03709e+06
2.03709e+06
2.03709e+06
2.03808e+06
2.03808e+06
2.03808e+06
2.03808e+06
2.03808e+06
2.03808e+06
2.03808e+06
2.03809e+06
2.03809e+06
2.03809e+06
-974888
-973889
-973888
-972890
-972889
-971892
-971891
-970893
-970892
-969894
-969893
-968896
-968895
-968894
-967898
-967897
-967896
25112
26111
26112
27110
27111
28108
28109
29107
29108
30106
30107
31104
31105
31106
32102
32103
32104
1.02511e+06
1.02611e+06
1.02611e+06
1.02711e+06
1.02711e+06
1.02811e+06
1.02811e+06
1.02911e+06
1.02911e+06
1.03011e+06
1.03011e+06
1.0311e+06
1.0311e+06
1.03111e+06
1.0321e+06
1.0321e+06
1.0321e+06
2.02511e+06
2.02611e+06
2.02611e+06
2.02711e+06
2.02711e+06
2.02811e+06
2.02811e+06
2.02911e+06
2.02911e+06
2.03011e+06
2.03011e+06
2.0311e+06
2.0311e+06
2.03111e+06
2.0321e+06
2.0321e+06
2.0321e+06
-968896
-968895
-968894
-967898
-967897
-967896
-966900
-966899
-966898
-965902
-965901
-965900
-964904
-964903
-964902
-963905
-963904
31104
31105
31106
32102
32103
32104
33100
33101
33102
34098
34099
34100
35096
35097
35098
36095
36096
1.0311e+06
1.0311e+06
1.03111e+06
1.0321e+06
1.0321e+06
1.0321e+06
1.0331e+06
1.0331e+06
1.0331e+06
1.0341e+06
1.0341e+06
1.0341e+06
1.0351e+06
1.0351e+06
1.0351e+06
1.0361e+06
1.0361e+06
2.0311e+06
2.0311e+06
2.03111e+06
2.0321e+06
2.0321e+06
2.0321e+06
2.0331e+06
2.0331e+06
2.0331e+06
2.0341e+06
2.0341e+06
2.0341e+06
2.0351e+06
2.0351e+06
2.0351e+06
2.0361e+06
2.0361e+06
-1.00188e+06
-1.00088e+06
-999877
-998877
-997877
-996877
-995878
-995877
-994878
-993878
-992878
-991878
-990879
-990878
-989879
-988879
-987880
-987879
-986880
-985881
-985880
-984881
-983882
-983881
-1877
-877
123
1123
2123
3123
4122
4123
5122
6122
7122
8122
9121
9122
10121
11121
12120
12121
13120
14119
14120
15119
16118
16119
998123
999123
1.00012e+06
1.00112e+06
1.00212e+06
1.00312e+06
1.00412e+06
1.00412e+06
1.00512e+06
1.00612e+06
1.00712e+06
1.00812e+06
1.00912e+06
1.00912e+06
1.01012e+06
1.01112e+06
1.01212e+06
1.01212e+06
1.01312e+06
1.01412e+06
1.01412e+06
1.01512e+06
1.01612e+06
1.01612e+06
1.99812e+06
1.99912e+06
2.00012e+06
2.00112e+06
2.00212e+06
2.00312e+06
2.00412e+06
2.00412e+06
2.00512e+06
2.00612e+06
2.00712e+06
2.00812e+06
2.00912e+06
2.00912e+06
2.01012e+06
2.01112e+06
2.01212e+06
2.01212e+06
2.01312e+06
2.01412e+06
2.01412e+06
2.01512e+06
2.01612e+06
2.01612e+06
-984881
-983882
-983881
-982882
-981883
-981882
-980883
-979884
-979883
-978885
-978884
-977886
-977885
-976886
-975887
-975886
-974888
-974887
-973889
-973888
-972889
15119
16118
16119
17118
18117
18118
19117
20116
20117
21115
21116
22114
22115
23114
24113
24114
25112
25113
26111
26112
27111
1.01512e+06
1.01612e+06
1.01612e+06
1.01712e+06
1.01812e+06
1.01812e+06
1.01912e+06
1.02012e+06
1.02012e+06
1.02112e+06
1.02112e+06
1.02211e+06
1.02212e+06
1.02311e+06
1.02411e+06
1.02411e+06
1.02511e+06
1.02511e+06
1.02611e+06
1.02611e+06
1.02711e+06
2.01512e+06
2.01612e+06
2.01612e+06
2.01712e+06
2.01812e+06
2.01812e+06
2.01912e+06
2.02012e+06
2.02012e+06
2.02112e+06
2.02112e+06
2.02211e+06
2.02212e+06
2.02311e+06
2.02411e+06
2.02411e+06
2.02511e+06
2.02511e+06
2.02611e+06
2.02611e+06
2.02711e+06
