# vtk DataFile Version 2.0
Interface from PLIC
ASCII
DATASET POLYDATA
POINTS 64 float
0.4035856600899195 0.4375 0.0625
0.4375 0.4029162698362674 0.0625
0.4375 0.4029162698362674 0
0.4035856600899195 0.4375 0
0.4375 0.4045067513175031 0.0625
0.4929276724647991 0.375 0.0625
0.4929276724647991 0.375 0
0.4375 0.4045067513175031 0
0.5625 0.3773855464732255 0
0.5625 0.3773855464732255 0.0625
0.5 0.375052106653377 0.0625
0.5 0.375052106653377 0
0.625 0.4128710012346625 0.0625
0.5664103026022425 0.375 0.0625
0.5664103026022425 0.375 0
0.625 0.4128710012346625 0
0.6485329865303088 0.4375 0.0625
0.625 0.4117222577487368 0.0625
0.625 0.4117222577487368 0
0.6485329865303088 0.4375 0
0.4051730439604871 0.4375 0.0625
0.375 0.4981719857812364 0.0625
0.375 0.4981719857812364 0
0.4051730439604871 0.4375 0
0.6477217014345215 0.4375 0
0.6477217014345215 0.4375 0.0625
0.6785404940968632 0.5 0.0625
0.6785404940968632 0.5 0
0.380854181188434 0.5625 0
0.380854181188434 0.5625 0.0625
0.377218951464046 0.5 0.0625
0.377218951464046 0.5 0
0.6719221845324322 0.5625 0
0.6719221845324322 0.5625 0.0625
0.6755574142560034 0.5 0.0625
0.6755574142560034 0.5 0
0.417832303781921 0.625 0
0.417832303781921 0.625 0.0625
0.3759991510219877 0.5625 0.0625
0.3759991510219877 0.5625 0
0.6760571495600496 0.5625 0
0.6760571495600496 0.5625 0.0625
0.6356641270770508 0.625 0.0625
0.6356641270770508 0.625 0
0.4375 0.6435242461972712 0.0625
0.4171961889839513 0.625 0.0625
0.4171961889839513 0.625 0
0.4375 0.6435242461972712 0
0.4375 0.6430231886340562 0
0.4375 0.6430231886340562 0.0625
0.5 0.6755532629696638 0.0625
0.5 0.6755532629696638 0
0.5625 0.6699866037117317 0
0.5625 0.6699866037117317 0.0625
0.5 0.6723200435308566 0.0625
0.5 0.6723200435308566 0
0.5625 0.6738614154231435 0
0.5625 0.6738614154231435 0.0625
0.625 0.6353812769040765 0.0625
0.625 0.6353812769040765 0
0.625 0.6350982624831112 0.0625
0.6353038550691567 0.625 0.0625
0.6353038550691567 0.625 0
0.625 0.6350982624831112 0
POLYGONS 16 80
4 0 1 2 3
4 4 5 6 7
4 8 9 10 11
4 12 13 14 15
4 16 17 18 19
4 20 21 22 23
4 24 25 26 27
4 28 29 30 31
4 32 33 34 35
4 36 37 38 39
4 40 41 42 43
4 44 45 46 47
4 48 49 50 51
4 52 53 54 55
4 56 57 58 59
4 60 61 62 63
CELL_DATA 16
SCALARS cl float
LOOKUP_TABLE default
0
0
0
0
0
0
0
0
0
0
0
0
0
0
0
0
