# vtk DataFile Version 2.0
Reconstructed linear interface
ASCII
DATASET POLYDATA
POINTS 320 float
0.4035856600899195 0.4375 -0.0625
0.4375 0.4029162698362674 -0.0625
0.4375 0.4029162698362674 -0.125
0.4035856600899195 0.4375 -0.125
0.4375 0.4045067513175031 -0.0625
0.4929276724647991 0.375 -0.0625
0.4929276724647991 0.375 -0.125
0.4375 0.4045067513175031 -0.125
0.5625 0.3773855464732255 -0.125
0.5625 0.3773855464732255 -0.0625
0.5 0.375052106653377 -0.0625
0.5 0.375052106653377 -0.125
0.625 0.4128710012346625 -0.0625
0.5664103026022425 0.375 -0.0625
0.5664103026022425 0.375 -0.125
0.625 0.4128710012346625 -0.125
0.6485329865303088 0.4375 -0.0625
0.625 0.4117222577487368 -0.0625
0.625 0.4117222577487368 -0.125
0.6485329865303088 0.4375 -0.125
0.4051730439604871 0.4375 -0.0625
0.375 0.4981719857812364 -0.0625
0.375 0.4981719857812364 -0.125
0.4051730439604871 0.4375 -0.125
0.6477217014345215 0.4375 -0.125
0.6477217014345215 0.4375 -0.0625
0.6785404940968632 0.5 -0.0625
0.6785404940968632 0.5 -0.125
0.380854181188434 0.5625 -0.125
0.380854181188434 0.5625 -0.0625
0.377218951464046 0.5 -0.0625
0.377218951464046 0.5 -0.125
0.6719221845324322 0.5625 -0.125
0.6719221845324322 0.5625 -0.0625
0.6755574142560034 0.5 -0.0625
0.6755574142560034 0.5 -0.125
0.417832303781921 0.625 -0.125
0.417832303781921 0.625 -0.0625
0.3759991510219877 0.5625 -0.0625
0.3759991510219877 0.5625 -0.125
0.6760571495600496 0.5625 -0.125
0.6760571495600496 0.5625 -0.0625
0.6356641270770508 0.625 -0.0625
0.6356641270770508 0.625 -0.125
0.4375 0.6435242461972712 -0.0625
0.4171961889839513 0.625 -0.0625
0.4171961889839513 0.625 -0.125
0.4375 0.6435242461972712 -0.125
0.4375 0.6430231886340562 -0.125
0.4375 0.6430231886340562 -0.0625
0.5 0.6755532629696638 -0.0625
0.5 0.6755532629696638 -0.125
0.5625 0.6699866037117317 -0.125
0.5625 0.6699866037117317 -0.0625
0.5 0.6723200435308566 -0.0625
0.5 0.6723200435308566 -0.125
0.5625 0.6738614154231435 -0.125
0.5625 0.6738614154231435 -0.0625
0.625 0.6353812769040765 -0.0625
0.625 0.6353812769040765 -0.125
0.625 0.6350982624831112 -0.0625
0.6353038550691567 0.625 -0.0625
0.6353038550691567 0.625 -0.125
0.625 0.6350982624831112 -0.125
0.4035856600899195 0.4375 0
0.4375 0.4029162698362674 0
0.4375 0.4029162698362674 -0.0625
0.4035856600899195 0.4375 -0.0625
0.4375 0.4045067513175031 0
0.4929276724647991 0.375 0
0.4929276724647991 0.375 -0.0625
0.4375 0.4045067513175031 -0.0625
0.5625 0.3773855464732255 -0.0625
0.5625 0.3773855464732255 0
0.5 0.375052106653377 0
0.5 0.375052106653377 -0.0625
0.625 0.4128710012346625 0
0.5664103026022425 0.375 0
0.5664103026022425 0.375 -0.0625
0.625 0.4128710012346625 -0.0625
0.6485329865303088 0.4375 0
0.625 0.4117222577487368 0
0.625 0.4117222577487368 -0.0625
0.6485329865303088 0.4375 -0.0625
0.4051730439604871 0.4375 0
0.375 0.4981719857812364 0
0.375 0.4981719857812364 -0.0625
0.4051730439604871 0.4375 -0.0625
0.6477217014345215 0.4375 -0.0625
0.6477217014345215 0.4375 0
0.6785404940968632 0.5 0
0.6785404940968632 0.5 -0.0625
0.380854181188434 0.5625 -0.0625
0.380854181188434 0.5625 0
0.377218951464046 0.5 0
0.377218951464046 0.5 -0.0625
0.6719221845324322 0.5625 -0.0625
0.6719221845324322 0.5625 0
0.6755574142560034 0.5 0
0.6755574142560034 0.5 -0.0625
0.417832303781921 0.625 -0.0625
0.417832303781921 0.625 0
0.3759991510219877 0.5625 0
0.3759991510219877 0.5625 -0.0625
0.6760571495600496 0.5625 -0.0625
0.6760571495600496 0.5625 0
0.6356641270770508 0.625 0
0.6356641270770508 0.625 -0.0625
0.4375 0.6435242461972712 0
0.4171961889839513 0.625 0
0.4171961889839513 0.625 -0.0625
0.4375 0.6435242461972712 -0.0625
0.4375 0.6430231886340562 -0.0625
0.4375 0.6430231886340562 0
0.5 0.6755532629696638 0
0.5 0.6755532629696638 -0.0625
0.5625 0.6699866037117317 -0.0625
0.5625 0.6699866037117317 0
0.5 0.6723200435308566 0
0.5 0.6723200435308566 -0.0625
0.5625 0.6738614154231435 -0.0625
0.5625 0.6738614154231435 0
0.625 0.6353812769040765 0
0.625 0.6353812769040765 -0.0625
0.625 0.6350982624831112 0
0.6353038550691567 0.625 0
0.6353038550691567 0.625 -0.0625
0.625 0.6350982624831112 -0.0625
0.4035856600899195 0.4375 0.0625
0.4375 0.4029162698362674 0.0625
0.4375 0.4029162698362674 0
0.4035856600899195 0.4375 0
0.4375 0.4045067513175031 0.0625
0.4929276724647991 0.375 0.0625
0.4929276724647991 0.375 0
0.4375 0.4045067513175031 0
0.5625 0.3773855464732255 0
0.5625 0.3773855464732255 0.0625
0.5 0.375052106653377 0.0625
0.5 0.375052106653377 0
0.625 0.4128710012346625 0.0625
0.5664103026022425 0.375 0.0625
0.5664103026022425 0.375 0
0.625 0.4128710012346625 0
0.6485329865303088 0.4375 0.0625
0.625 0.4117222577487368 0.0625
0.625 0.4117222577487368 0
0.6485329865303088 0.4375 0
0.4051730439604871 0.4375 0.0625
0.375 0.4981719857812364 0.0625
0.375 0.4981719857812364 0
0.4051730439604871 0.4375 0
0.6477217014345215 0.4375 0
0.6477217014345215 0.4375 0.0625
0.6785404940968632 0.5 0.0625
0.6785404940968632 0.5 0
0.380854181188434 0.5625 0
0.380854181188434 0.5625 0.0625
0.377218951464046 0.5 0.0625
0.377218951464046 0.5 0
0.6719221845324322 0.5625 0
0.6719221845324322 0.5625 0.0625
0.6755574142560034 0.5 0.0625
0.6755574142560034 0.5 0
0.417832303781921 0.625 0
0.417832303781921 0.625 0.0625
0.3759991510219877 0.5625 0.0625
0.3759991510219877 0.5625 0
0.6760571495600496 0.5625 0
0.6760571495600496 0.5625 0.0625
0.6356641270770508 0.625 0.0625
0.6356641270770508 0.625 0
0.4375 0.6435242461972712 0.0625
0.4171961889839513 0.625 0.0625
0.4171961889839513 0.625 0
0.4375 0.6435242461972712 0
0.4375 0.6430231886340562 0
0.4375 0.6430231886340562 0.0625
0.5 0.6755532629696638 0.0625
0.5 0.6755532629696638 0
0.5625 0.6699866037117317 0
0.5625 0.6699866037117317 0.0625
0.5 0.6723200435308566 0.0625
0.5 0.6723200435308566 0
0.5625 0.6738614154231435 0
0.5625 0.6738614154231435 0.0625
0.625 0.6353812769040765 0.0625
0.625 0.6353812769040765 0
0.625 0.6350982624831112 0.0625
0.6353038550691567 0.625 0.0625
0.6353038550691567 0.625 0
0.625 0.6350982624831112 0
0.4035856600899195 0.4375 0.125
0.4375 0.4029162698362674 0.125
0.4375 0.4029162698362674 0.0625
0.4035856600899195 0.4375 0.0625
0.4375 0.4045067513175031 0.125
0.4929276724647991 0.375 0.125
0.4929276724647991 0.375 0.0625
0.4375 0.4045067513175031 0.0625
0.5625 0.3773855464732255 0.0625
0.5625 0.3773855464732255 0.125
0.5 0.375052106653377 0.125
0.5 0.375052106653377 0.0625
0.625 0.4128710012346625 0.125
0.5664103026022425 0.375 0.125
0.5664103026022425 0.375 0.0625
0.625 0.4128710012346625 0.0625
0.6485329865303088 0.4375 0.125
0.625 0.4117222577487368 0.125
0.625 0.4117222577487368 0.0625
0.6485329865303088 0.4375 0.0625
0.4051730439604871 0.4375 0.125
0.375 0.4981719857812364 0.125
0.375 0.4981719857812364 0.0625
0.4051730439604871 0.4375 0.0625
0.6477217014345215 0.4375 0.0625
0.6477217014345215 0.4375 0.125
0.6785404940968632 0.5 0.125
0.6785404940968632 0.5 0.0625
0.380854181188434 0.5625 0.0625
0.380854181188434 0.5625 0.125
0.377218951464046 0.5 0.125
0.377218951464046 0.5 0.0625
0.6719221845324322 0.5625 0.0625
0.6719221845324322 0.5625 0.125
0.6755574142560034 0.5 0.125
0.6755574142560034 0.5 0.0625
0.417832303781921 0.625 0.0625
0.417832303781921 0.625 0.125
0.3759991510219877 0.5625 0.125
0.3759991510219877 0.5625 0.0625
0.6760571495600496 0.5625 0.0625
0.6760571495600496 0.5625 0.125
0.6356641270770508 0.625 0.125
0.6356641270770508 0.625 0.0625
0.4375 0.6435242461972712 0.125
0.4171961889839513 0.625 0.125
0.4171961889839513 0.625 0.0625
0.4375 0.6435242461972712 0.0625
0.4375 0.6430231886340562 0.0625
0.4375 0.6430231886340562 0.125
0.5 0.6755532629696638 0.125
0.5 0.6755532629696638 0.0625
0.5625 0.6699866037117317 0.0625
0.5625 0.6699866037117317 0.125
0.5 0.6723200435308566 0.125
0.5 0.6723200435308566 0.0625
0.5625 0.6738614154231435 0.0625
0.5625 0.6738614154231435 0.125
0.625 0.6353812769040765 0.125
0.625 0.6353812769040765 0.0625
0.625 0.6350982624831112 0.125
0.6353038550691567 0.625 0.125
0.6353038550691567 0.625 0.0625
0.625 0.6350982624831112 0.0625
0.4035856600899195 0.4375 0.1875
0.4375 0.4029162698362674 0.1875
0.4375 0.4029162698362674 0.125
0.4035856600899195 0.4375 0.125
0.4375 0.4045067513175031 0.1875
0.4929276724647991 0.375 0.1875
0.4929276724647991 0.375 0.125
0.4375 0.4045067513175031 0.125
0.5625 0.3773855464732255 0.125
0.5625 0.3773855464732255 0.1875
0.5 0.375052106653377 0.1875
0.5 0.375052106653377 0.125
0.625 0.4128710012346625 0.1875
0.5664103026022425 0.375 0.1875
0.5664103026022425 0.375 0.125
0.625 0.4128710012346625 0.125
0.6485329865303088 0.4375 0.1875
0.625 0.4117222577487368 0.1875
0.625 0.4117222577487368 0.125
0.6485329865303088 0.4375 0.125
0.4051730439604871 0.4375 0.1875
0.375 0.4981719857812364 0.1875
0.375 0.4981719857812364 0.125
0.4051730439604871 0.4375 0.125
0.6477217014345215 0.4375 0.125
0.6477217014345215 0.4375 0.1875
0.6785404940968632 0.5 0.1875
0.6785404940968632 0.5 0.125
0.380854181188434 0.5625 0.125
0.380854181188434 0.5625 0.1875
0.377218951464046 0.5 0.1875
0.377218951464046 0.5 0.125
0.6719221845324322 0.5625 0.125
0.6719221845324322 0.5625 0.1875
0.6755574142560034 0.5 0.1875
0.6755574142560034 0.5 0.125
0.417832303781921 0.625 0.125
0.417832303781921 0.625 0.1875
0.3759991510219877 0.5625 0.1875
0.3759991510219877 0.5625 0.125
0.6760571495600496 0.5625 0.125
0.6760571495600496 0.5625 0.1875
0.6356641270770508 0.625 0.1875
0.6356641270770508 0.625 0.125
0.4375 0.6435242461972712 0.1875
0.4171961889839513 0.625 0.1875
0.4171961889839513 0.625 0.125
0.4375 0.6435242461972712 0.125
0.4375 0.6430231886340562 0.125
0.4375 0.6430231886340562 0.1875
0.5 0.6755532629696638 0.1875
0.5 0.6755532629696638 0.125
0.5625 0.6699866037117317 0.125
0.5625 0.6699866037117317 0.1875
0.5 0.6723200435308566 0.1875
0.5 0.6723200435308566 0.125
0.5625 0.6738614154231435 0.125
0.5625 0.6738614154231435 0.1875
0.625 0.6353812769040765 0.1875
0.625 0.6353812769040765 0.125
0.625 0.6350982624831112 0.1875
0.6353038550691567 0.625 0.1875
0.6353038550691567 0.625 0.125
0.625 0.6350982624831112 0.125
POLYGONS 80 400
4 0 1 2 3
4 4 5 6 7
4 8 9 10 11
4 12 13 14 15
4 16 17 18 19
4 20 21 22 23
4 24 25 26 27
4 28 29 30 31
4 32 33 34 35
4 36 37 38 39
4 40 41 42 43
4 44 45 46 47
4 48 49 50 51
4 52 53 54 55
4 56 57 58 59
4 60 61 62 63
4 64 65 66 67
4 68 69 70 71
4 72 73 74 75
4 76 77 78 79
4 80 81 82 83
4 84 85 86 87
4 88 89 90 91
4 92 93 94 95
4 96 97 98 99
4 100 101 102 103
4 104 105 106 107
4 108 109 110 111
4 112 113 114 115
4 116 117 118 119
4 120 121 122 123
4 124 125 126 127
4 128 129 130 131
4 132 133 134 135
4 136 137 138 139
4 140 141 142 143
4 144 145 146 147
4 148 149 150 151
4 152 153 154 155
4 156 157 158 159
4 160 161 162 163
4 164 165 166 167
4 168 169 170 171
4 172 173 174 175
4 176 177 178 179
4 180 181 182 183
4 184 185 186 187
4 188 189 190 191
4 192 193 194 195
4 196 197 198 199
4 200 201 202 203
4 204 205 206 207
4 208 209 210 211
4 212 213 214 215
4 216 217 218 219
4 220 221 222 223
4 224 225 226 227
4 228 229 230 231
4 232 233 234 235
4 236 237 238 239
4 240 241 242 243
4 244 245 246 247
4 248 249 250 251
4 252 253 254 255
4 256 257 258 259
4 260 261 262 263
4 264 265 266 267
4 268 269 270 271
4 272 273 274 275
4 276 277 278 279
4 280 281 282 283
4 284 285 286 287
4 288 289 290 291
4 292 293 294 295
4 296 297 298 299
4 300 301 302 303
4 304 305 306 307
4 308 309 310 311
4 312 313 314 315
4 316 317 318 319
CELL_DATA 80
SCALARS c float
LOOKUP_TABLE default
-1993994
-1993993
-1993992
-1993991
-1993990
-1992994
-1992990
-1991994
-1991990
-1990994
-1990990
-1989994
-1989993
-1989992
-1989991
-1989990
-993994
-993993
-993992
-993991
-993990
-992994
-992990
-991994
-991990
-990994
-990990
-989994
-989993
-989992
-989991
-989990
6006
6007
6008
6009
6010
7006
7010
8006
8010
9006
9010
10006
10007
10008
10009
10010
1006006
1006007
1006008
1006009
1006010
1007006
1007010
1008006
1008010
1009006
1009010
1010006
1010007
1010008
1010009
1010010
2006006
2006007
2006008
2006009
2006010
2007006
2007010
2008006
2008010
2009006
2009010
2010006
2010007
2010008
2010009
2010010
