# vtk DataFile Version 2.0
Interface from PLIC
ASCII
DATASET POLYDATA
POINTS 2435 float
0.375 0.01542692415113979 0.0625
0.375 0.0625 0.01925262310432152
0.3476119623005984 0.0625 0.0625
0.375 0.0625 0.02062329161848494
0.375 0.01713297669191323 0.0625
0.4059895306772379 0 0.0625
0.4375 0 0.04641930000462431
0.4375 0.0502882281498619 0
0.4154117729990313 0.0625 0
0.5 0.0625 0.0370291887296384
0.5 0.03489927688273853 0.0625
0.4592289888039609 0 0.0625
0.4375 0 0.04533567302236934
0.4375 0.04912671783961407 0
0.4531233104347949 0.0625 0
0.3570356961247365 0.125 0.0625
0.375 0.125 0.03518699600232297
0.375 0.0625 0.01986160619833272
0.3469558836123829 0.0625 0.0625
0.375 0.0625 0.01935776453684847
0.4057356639594812 0.0625 0
0.4375 0.1161846144881076 0
0.4375 0.125 0.00328506416057165
0.375 0.125 0.0426484657499431
0.5 0.0625 0.03667969468773666
0.4591441961869459 0.0625 0
0.4375 0.1212231248162955 0
0.4375 0.125 0.001249789551839114
0.5 0.125 0.05736130135744107
0.09652945992323807 0.1875 0.0625
0.125 0.1875 0.04308037283694593
0.125 0.1702940437225718 0.0625
0.125 0.1707103024135377 0.0625
0.125 0.1875 0.04347024138476842
0.1875 0.1875 0.04118118857638514
0.1875 0.1686907022079189 0.0625
0.2221982011164911 0.1875 0.0625
0.1875 0.1875 0.04087097018951554
0.1875 0.1683765725463394 0.0625
0.375 0.125 0.03415168712623987
0.375 0.145693119417837 0.0625
0.3569911015061919 0.125 0.0625
0.375 0.1443830286554898 0.0625
0.375 0.125 0.03591870686574646
0.4375 0.125 0.004274701659572687
0.4375 0.1674577773739915 0.0625
0.5 0.1323397432207654 0.0625
0.5 0.125 0.05242873428927265
0.4375 0.125 0.003352039703108302
0.4375 0.1681058868945139 0.0625
0.125 0.1875 0.04522170664723651
0.101530299576265 0.1875 0.0625
0.0625 0.2329888287771855 0.0625
0.0625 0.25 0.05175454913248689
0.125 0.25 0.005742315697431367
0.125 0.1875 0.04766051584356161
0.1875 0.1875 0.04499366192828462
0.1875 0.25 0.004716115028378223
0.125 0.25 0.007382968943655213
0.1875 0.1875 0.04240932820350914
0.2162431118046682 0.1875 0.0625
0.25 0.2243012871896896 0.0625
0.25 0.25 0.04602325418085591
0.1875 0.25 0.002337414045872885
0.25 0.2190761922539782 0.0625
0.25 0.25 0.04528739332043913
0.2643694115318641 0.25 0.0625
0.125 0.3125 0.01550164165090052
0.06411568975160997 0.3125 0.0625
0.0625 0.3045997570164922 0.0625
0.0625 0.25 0.05388043142095329
0.125 0.25 0.005634875466800193
0.125 0.3125 0.01783002270856936
0.1875 0.3125 0.01565806959118858
0.1875 0.25 0.008754356135763613
0.125 0.25 0.0109263092531444
0.25 0.3125 0.05756371601437521
0.25 0.25 0.0482645805026873
0.1875 0.25 0.003610943801307644
0.1875 0.3125 0.01291007931299555
0.258238800596593 0.3125 0.0625
0.25 0.3125 0.05262097917207099
0.25 0.25 0.04533804586372705
0.2643125437671811 0.25 0.0625
0.0625 0.3125 0.05924603801025284
0.0625 0.3168614621681373 0.0625
0.125 0.374510858325227 0.0625
0.125 0.3125 0.01623547490197302
0.125 0.3125 0.01521019967207875
0.125 0.3703348626471644 0.0625
0.1875 0.3742905987798235 0.0625
0.1875 0.3125 0.01197571508438935
0.25 0.3125 0.05415843438004376
0.25 0.323833162458934 0.0625
0.1918242855106402 0.375 0.0625
0.1875 0.375 0.0597006470022388
0.1875 0.3125 0.01369867243102937
0.25 0.5052317457038485 0.0625
0.2007925860749461 0.5625 0.0625
0.25 0.5625 0.02680022621945569
0.25 0.5625 0.02579487209441962
0.25 0.5112284197913551 0.0625
0.3125 0.5005160152707624 0.0625
0.3125 0.5625 0.0181259027257249
0.375 0.5625 0.0594265118729693
0.375 0.5577460954253902 0.0625
0.314774829851806 0.5 0.0625
0.3125 0.5 0.06108981988244169
0.3125 0.5625 0.02068240216409463
0.25 0.625 0.02816395956034834
0.2064865932973706 0.625 0.0625
0.2025688946468065 0.5625 0.0625
0.25 0.5625 0.02507253855956494
0.25 0.625 0.03030938217972173
0.25 0.5625 0.027928834301332
0.3125 0.5625 0.02241785155364148
0.3125 0.625 0.02479839943203122
0.3125 0.625 0.02177238465393126
0.3717097690922258 0.625 0.0625
0.375 0.5835426757756501 0.0625
0.375 0.5625 0.06135126014690293
0.3125 0.5625 0.01836044970877342
0.25 0.6743202623820544 0.0625
0.2038524160278522 0.625 0.0625
0.25 0.625 0.0289359482056548
0.25 0.625 0.02878296218150685
0.25 0.669904712256871 0.0625
0.3125 0.6796914639323268 0.0625
0.3125 0.625 0.02143450675718657
0.375 0.625 0.06096889601209839
0.375 0.6272622875422434 0.0625
0.3125 0.6816855612179293 0.0625
0.3125 0.625 0.02413551837838175
0.3523668785167494 0.0625 0.125
0.375 0.02808850585893551 0.125
0.375 0.01743699131936192 0.0625
0.3453611663681713 0.0625 0.0625
0.375 0.0150296101322597 0.0625
0.3975680873278932 0 0.0625
0.4202296319884996 0 0.125
0.375 0.0301214598001199 0.125
0.5 0.03347007373962631 0.0625
0.4647385657919547 0 0.0625
0.4507551270422933 0 0.125
0.5 0.04674312223003435 0.125
0.3413351109001376 0.0625 0.0625
0.3519510039343858 0.0625 0.125
0.3692349359098779 0.125 0.125
0.3586190428756297 0.125 0.0625
0.5 0.125 0.125
0.125 0.1730533809509996 0.0625
0.1034994134824961 0.1875 0.0625
0.0625 0.1875 0.1211939870095707
0.0625 0.1857136349544674 0.125
0.125 0.1437187949612678 0.125
0.1875 0.1441684982732594 0.125
0.125 0.1465181960519251 0.125
0.125 0.1742777063661041 0.0625
0.1875 0.1719280085874384 0.0625
0.1875 0.1703940474044579 0.0625
0.2143410412695592 0.1875 0.0625
0.25 0.1875 0.1104585641893516
0.25 0.180609389846944 0.125
0.1875 0.1407777742816458 0.125
0.3632335449554056 0.125 0.125
0.375 0.1385566567077306 0.125
0.375 0.1462741655691804 0.0625
0.3565351588391055 0.125 0.0625
0.4375 0.1743522725997714 0.0625
0.4375 0.1628020179864945 0.125
0.375 0.1312472308100952 0.125
0.375 0.1427974854233721 0.0625
0.4375 0.1648940995935945 0.125
0.4927245422057664 0.125 0.125
0.5 0.125 0.09275250894616664
0.5 0.1299306291154604 0.0625
0.4375 0.175080504967927 0.0625
0.05630167136765667 0.25 0.0625
0.0625 0.2383964194179735 0.0625
0.0625 0.1875099785535687 0.125
0.02911946832453333 0.25 0.125
0.0625 0.1875 0.1159423357889387
0.0625 0.2301252091599268 0.0625
0.09693940473842537 0.1875 0.0625
0.25 0.1875 0.1031224828153334
0.25 0.2172361444095281 0.0625
0.2236233905112553 0.1875 0.0625
0.2625306939719732 0.25 0.0625
0.25 0.2276221409735319 0.0625
0.25 0.1875 0.1120227922546684
0.2558873088962346 0.1875 0.125
0.2908847754689753 0.25 0.125
0.03790769343553576 0.3125 0.125
0.0625 0.3125 0.06745109622063211
0.0625 0.2958499231333829 0.0625
0.05667379254800684 0.25 0.0625
0.0299657397556953 0.25 0.125
0.2885838769060035 0.25 0.125
0.2808138823196549 0.3125 0.125
0.2537189765354874 0.3125 0.0625
0.2614889711218359 0.25 0.0625
0.06188927401513612 0.3125 0.0625
0.0625 0.3135041027447029 0.0625
0.0625 0.3525969288986947 0.125
0.0381118220761167 0.3125 0.125
0.0625 0.3549096139199877 0.125
0.08403628891626602 0.375 0.125
0.125 0.375 0.06599803152163908
0.125 0.372734448568217 0.0625
0.0625 0.3144305720329985 0.0625
0.1309913729022365 0.375 0.0625
0.125 0.375 0.06296811907031197
0.125 0.3747416331194077 0.0625
0.25 0.3627011288089256 0.125
0.2358120401494028 0.375 0.125
0.1899293826046855 0.375 0.0625
0.25 0.322927623598245 0.0625
0.255646656665134 0.3125 0.0625
0.25 0.3211879440614796 0.0625
0.25 0.3612890730095685 0.125
0.2817100504268519 0.3125 0.125
0.125 0.375 0.07069613085986962
0.08875713761967269 0.375 0.125
0.125 0.3951001325120254 0.125
0.125 0.3959288895099648 0.125
0.125 0.375 0.0746062436246521
0.1875 0.375 0.06851117846022055
0.1875 0.3984602139151608 0.125
0.1875 0.375 0.06678711458078104
0.2300334842010995 0.375 0.125
0.1875 0.3978006741751607 0.125
0.25 0.5 0.07286494911921895
0.220243973733758 0.5 0.125
0.25 0.4825986305825712 0.125
0.25 0.480789773540633 0.125
0.25 0.5 0.082082547129052
0.3125 0.5 0.06718849357742682
0.3125 0.474123065185759 0.125
0.3125 0.5 0.06547195417565807
0.3561131109824938 0.5 0.125
0.3125 0.4761985927970411 0.125
0.2173285583350907 0.5 0.125
0.1875 0.5334199594561206 0.125
0.1875 0.5625 0.08586320420094654
0.2029941762276108 0.5625 0.0625
0.25 0.5098346077598817 0.0625
0.25 0.5 0.07573571179625765
0.286023372918335 0.5 0.0625
0.25 0.5 0.0691715226559968
0.25 0.50445888838808 0.0625
0.375 0.5124037934230756 0.125
0.3618673668032614 0.5 0.125
0.3134142745719004 0.5 0.0625
0.375 0.5581678178760154 0.0625
0.3761201622583084 0.5625 0.0625
0.375 0.5605691717576541 0.0625
0.375 0.5167108440602828 0.125
0.4015643951121987 0.5625 0.125
0.2012204220128708 0.5625 0.0625
0.1875 0.5625 0.08527341268723421
0.1875 0.625 0.09061378699676348
0.2044378664178768 0.625 0.0625
0.4003509126680161 0.625 0.125
0.375 0.625 0.0694464643804872
0.375 0.5625 0.06286216553180876
0.4033555456446856 0.5625 0.125
0.2248629004068479 0.6875 0.125
0.1875 0.6476127519921848 0.125
0.1875 0.625 0.09279961244774976
0.2074313127204763 0.625 0.0625
0.25 0.6704447531748443 0.0625
0.25 0.6875 0.08678654229078817
0.3125 0.6814492708363014 0.0625
0.3125 0.6875 0.07188178006400697
0.25 0.6875 0.08441264317724512
0.25 0.6733675573055747 0.0625
0.375 0.6669182624338795 0.125
0.352299810646566 0.6875 0.125
0.3125 0.6875 0.0729607508251658
0.3125 0.6802462029971608 0.0625
0.373432623645837 0.625 0.0625
0.375 0.625 0.06454938383675633
0.375 0.625 0.06261574377409848
0.375 0.6644936360027878 0.125
0.3983926856448909 0.625 0.125
0.25 0.7002344060067056 0.125
0.25 0.6875 0.0956604672976212
0.3125 0.6875 0.08064817471347384
0.3125 0.7067502776396062 0.125
0.3125 0.6875 0.07829822292587654
0.3456969717600358 0.6875 0.125
0.3125 0.7043612402180452 0.125
0.375 0.02509121590109824 0.125
0.375 0.0625 0.151862719900261
0.3532282867212687 0.0625 0.125
0.375 0.0625 0.1509112849780042
0.375 0.02826396101088034 0.125
0.4261813647605159 0 0.125
0.4375 0 0.1297306483469156
0.4375 0.0625 0.1770332966363374
0.5 0.0625 0.1377281146996361
0.5 0.04486075071140616 0.125
0.4475549223327189 0 0.125
0.4375 0 0.1312061819894663
0.4375 0.0625 0.176304879542409
0.36356153902285 0.125 0.125
0.375 0.125 0.1391362312844856
0.375 0.0625 0.1526592814832299
0.3526192391355993 0.0625 0.125
0.375 0.125 0.1306705102641665
0.375 0.0625 0.1504196164226779
0.4375 0.0625 0.1835400828935208
0.4375 0.125 0.1637909767350094
[...]
CELL_DATA 587
SCALARS cl float
LOOKUP_TABLE default
24
24
24
24
24
24
12
12
12
24
24
24
12
12
12
12
12
12
12
12
12
12
12
18
18
18
18
18
18
18
18
18
24
24
24
24
24
12
12
12
24
24
24
12
12
12
12
12
12
12
12
12
12
12
12
12
12
18
18
18
18
18
18
18
18
18
18
18
18
18
18
18
24
24
24
24
24
24
12
12
12
24
24
12
12
12
12
12
12
12
12
12
12
12
12
12
18
18
18
18
18
18
18
18
18
18
18
18
18
18
25
25
25
25
25
25
25
25
25
12
12
12
12
12
12
12
12
12
12
12
12
12
12
12
12
12
18
18
18
18
18
18
18
18
18
25
25
25
25
25
25
25
25
13
13
13
3
3
3
13
13
13
3
3
3
13
13
13
3
3
3
25
25
25
3
3
3
25
25
25
25
25
25
35
35
35
35
35
16
16
35
35
35
16
16
16
16
16
16
13
13
13
13
3
3
3
13
13
3
3
3
13
13
13
3
3
3
3
3
3
35
35
23
35
35
16
16
23
35
35
35
16
16
23
16
16
16
10
10
10
10
10
10
8
8
13
13
13
13
3
3
3
13
13
13
3
3
3
13
13
13
3
3
3
3
3
3
35
35
23
35
35
16
16
23
35
35
16
16
16
23
16
16
16
10
10
10
8
10
10
10
8
8
13
13
3
3
3
13
13
3
3
3
3
3
3
3
3
3
23
23
14
14
14
23
14
14
14
10
10
10
8
10
10
10
8
8
14
14
14
14
14
14
14
14
2
2
2
2
14
14
14
14
14
14
14
14
2
2
2
2
2
2
2
2
2
2
2
2
2
2
2
4
4
4
4
4
4
4
4
4
15
15
14
14
14
15
15
14
14
14
15
15
14
14
14
2
2
2
2
2
2
2
2
2
2
2
2
2
2
2
4
4
4
4
4
4
4
4
4
4
15
15
15
15
15
15
26
26
26
26
2
2
2
2
2
2
2
2
2
2
2
2
2
2
2
2
2
4
4
4
4
4
4
21
21
21
4
4
4
21
21
21
21
4
4
4
21
21
21
21
21
21
15
15
26
26
15
15
26
26
26
33
33
33
26
26
26
33
33
33
26
26
33
33
30
30
2
2
2
2
30
30
30
2
2
2
2
30
30
30
2
2
2
2
2
2
4
4
21
21
21
21
4
4
21
21
21
21
21
21
21
26
26
26
26
26
33
33
33
26
26
26
33
33
26
26
33
33
30
30
30
30
30
30
30
21
21
21
21
21
21
21
21
21
21
21
21
21
21
21
26
26
33
33
33
26
26
33
33
33
33
33
30
30
30
30
30
30
30
30
21
21
21
21
21
21
