# vtk DataFile Version 2.0
Interface from PLIC
ASCII
DATASET POLYDATA
POINTS 2435 float
0.375 0.01542692415113979 0.0625
0.375 0.0625 0.01925262310432152
0.3476119623005984 0.0625 0.0625
0.375 0.0625 0.02062329161848495
0.375 0.01713297669191324 0.0625
0.4059895306772379 0 0.0625
0.4375 0 0.04641930000462433
0.4375 0.05028822814986192 0
0.4154117729990314 0.0625 0
0.5 0.0625 0.0370291887296384
0.5 0.03489927688273853 0.0625
0.4592289888039609 0 0.0625
0.4375 0 0.04533567302236934
0.4375 0.04912671783961407 0
0.4531233104347949 0.0625 0
0.3570356961247365 0.125 0.0625
0.375 0.125 0.03518699600232299
0.375 0.0625 0.01986160619833274
0.3469558836123829 0.0625 0.0625
0.375 0.0625 0.01935776453684847
0.4057356639594812 0.0625 0
0.4375 0.1161846144881076 0
0.4375 0.125 0.00328506416057165
0.375 0.125 0.0426484657499431
0.5 0.0625 0.03667969468773666
0.4591441961869459 0.0625 0
0.4375 0.1212231248162955 0
0.4375 0.125 0.001249789551839114
0.5 0.125 0.05736130135744107
0.09652945992323807 0.1875 0.0625
0.125 0.1875 0.04308037283694593
0.125 0.1702940437225718 0.0625
0.125 0.1707103024135377 0.0625
0.125 0.1875 0.04347024138476842
0.1875 0.1875 0.04118118857638514
0.1875 0.1686907022079189 0.0625
0.2221982011164911 0.1875 0.0625
0.1875 0.1875 0.04087097018951554
0.1875 0.1683765725463394 0.0625
0.375 0.125 0.03415168712623987
0.375 0.145693119417837 0.0625
0.3569911015061919 0.125 0.0625
0.375 0.1443830286554898 0.0625
0.375 0.125 0.03591870686574646
0.4375 0.125 0.004274701659572687
0.4375 0.1674577773739915 0.0625
0.5 0.1323397432207654 0.0625
0.5 0.125 0.05242873428927265
0.4375 0.125 0.003352039703108302
0.4375 0.1681058868945139 0.0625
0.125 0.1875 0.04522170664723651
0.101530299576265 0.1875 0.0625
0.0625 0.2329888287771855 0.0625
0.0625 0.25 0.05175454913248689
0.125 0.25 0.005742315697431367
0.125 0.1875 0.04766051584356161
0.1875 0.1875 0.04499366192828462
0.1875 0.25 0.004716115028378223
0.125 0.25 0.007382968943655213
0.1875 0.1875 0.04240932820350914
0.2162431118046682 0.1875 0.0625
0.25 0.2243012871896896 0.0625
0.25 0.25 0.04602325418085591
0.1875 0.25 0.002337414045872885
0.25 0.2190761922539782 0.0625
0.25 0.25 0.04528739332043913
0.2643694115318641 0.25 0.0625
0.125 0.3125 0.01550164165090053
0.06411568975161 0.3125 0.0625
0.0625 0.3045997570164921 0.0625
0.0625 0.25 0.05388043142095331
0.125 0.25 0.005634875466800207
0.125 0.3125 0.01783002270856936
0.1875 0.3125 0.01565806959118857
0.1875 0.25 0.008754356135763607
0.125 0.25 0.01092630925314439
0.25 0.3125 0.05756371601437521
0.25 0.25 0.0482645805026873
0.1875 0.25 0.003610943801307644
0.1875 0.3125 0.01291007931299555
0.258238800596593 0.3125 0.0625
0.25 0.3125 0.05262097917207099
0.25 0.25 0.04533804586372705
0.2643125437671811 0.25 0.0625
0.0625 0.3125 0.05924603801025284
0.0625 0.3168614621681373 0.0625
0.125 0.374510858325227 0.0625
0.125 0.3125 0.01623547490197302
0.125 0.3125 0.01521019967207875
0.125 0.3703348626471644 0.0625
0.1875 0.3742905987798235 0.0625
0.1875 0.3125 0.01197571508438935
0.25 0.3125 0.05415843438004376
0.25 0.323833162458934 0.0625
0.1918242855106402 0.375 0.0625
0.1875 0.375 0.0597006470022388
0.1875 0.3125 0.01369867243102937
0.3523668785167494 0.0625 0.125
0.375 0.02808850585893551 0.125
0.375 0.01743699131936192 0.0625
0.3453611663681713 0.0625 0.0625
0.375 0.0150296101322597 0.0625
0.3975680873278932 0 0.0625
0.4202296319884996 0 0.125
0.375 0.0301214598001199 0.125
0.5 0.03347007373962631 0.0625
0.4647385657919547 0 0.0625
0.4507551270422933 0 0.125
0.5 0.04674312223003435 0.125
0.3413351109001376 0.0625 0.0625
0.3519510039343858 0.0625 0.125
0.3692349359098779 0.125 0.125
0.3586190428756297 0.125 0.0625
0.5 0.125 0.125
0.125 0.1730533809509996 0.0625
0.1034994134824961 0.1875 0.0625
0.0625 0.1875 0.1211939870095707
0.0625 0.1857136349544674 0.125
0.125 0.1437187949612678 0.125
0.1875 0.1441684982732594 0.125
0.125 0.1465181960519251 0.125
0.125 0.1742777063661041 0.0625
0.1875 0.1719280085874384 0.0625
0.1875 0.1703940474044579 0.0625
0.2143410412695592 0.1875 0.0625
0.25 0.1875 0.1104585641893516
0.25 0.180609389846944 0.125
0.1875 0.1407777742816458 0.125
0.3632335449554056 0.125 0.125
0.375 0.1385566567077306 0.125
0.375 0.1462741655691804 0.0625
0.3565351588391055 0.125 0.0625
0.4375 0.1743522725997714 0.0625
0.4375 0.1628020179864945 0.125
0.375 0.1312472308100952 0.125
0.375 0.1427974854233721 0.0625
0.4375 0.1648940995935946 0.125
0.4927245422057664 0.125 0.125
0.5 0.125 0.09275250894616668
0.5 0.1299306291154604 0.0625
0.4375 0.175080504967927 0.0625
0.05630167136765667 0.25 0.0625
0.0625 0.2383964194179735 0.0625
0.0625 0.1875099785535687 0.125
0.02911946832453333 0.25 0.125
0.0625 0.1875 0.1159423357889387
0.0625 0.2301252091599268 0.0625
0.09693940473842537 0.1875 0.0625
0.25 0.1875 0.1031224828153334
0.25 0.2172361444095281 0.0625
0.2236233905112553 0.1875 0.0625
0.2625306939719732 0.25 0.0625
0.25 0.2276221409735319 0.0625
0.25 0.1875 0.1120227922546684
0.2558873088962346 0.1875 0.125
0.2908847754689753 0.25 0.125
0.03790769343553576 0.3125 0.125
0.0625 0.3125 0.06745109622063211
0.0625 0.2958499231333829 0.0625
0.05667379254800684 0.25 0.0625
0.0299657397556953 0.25 0.125
0.2885838769060035 0.25 0.125
0.2808138823196549 0.3125 0.125
0.2537189765354874 0.3125 0.0625
0.2614889711218359 0.25 0.0625
0.06188927401513612 0.3125 0.0625
0.0625 0.3135041027447029 0.0625
0.0625 0.3525969288986947 0.125
0.0381118220761167 0.3125 0.125
0.0625 0.3549096139199877 0.125
0.08403628891626601 0.375 0.125
0.125 0.375 0.06599803152163906
0.125 0.372734448568217 0.0625
0.0625 0.3144305720329986 0.0625
0.1309913729022365 0.375 0.0625
0.125 0.375 0.06296811907031197
0.125 0.3747416331194077 0.0625
0.25 0.3627011288089256 0.125
0.2358120401494028 0.375 0.125
0.1899293826046855 0.375 0.0625
0.25 0.322927623598245 0.0625
0.255646656665134 0.3125 0.0625
0.25 0.3211879440614796 0.0625
0.25 0.3612890730095685 0.125
0.2817100504268519 0.3125 0.125
0.125 0.375 0.07069613085986962
0.08875713761967269 0.375 0.125
0.125 0.3951001325120254 0.125
0.125 0.3959288895099648 0.125
0.125 0.375 0.0746062436246521
0.1875 0.375 0.06851117846022055
0.1875 0.3984602139151608 0.125
0.1875 0.375 0.06678711458078104
0.2300334842010995 0.375 0.125
0.1875 0.3978006741751607 0.125
0.25 0.5 0.07286494911921895
0.220243973733758 0.5 0.125
0.25 0.4825986305825712 0.125
0.25 0.480789773540633 0.125
0.25 0.5 0.082082547129052
0.3125 0.5 0.06718849357742682
0.3125 0.474123065185759 0.125
0.3125 0.5 0.06547195417565807
0.3561131109824938 0.5 0.125
0.3125 0.4761985927970411 0.125
0.375 0.02509121590109824 0.125
0.375 0.0625 0.151862719900261
0.3532282867212687 0.0625 0.125
0.375 0.0625 0.1509112849780042
0.375 0.02826396101088034 0.125
0.4261813647605159 0 0.125
0.4375 0 0.1297306483469156
0.4375 0.0625 0.1770332966363374
0.5 0.0625 0.1377281146996361
0.5 0.04486075071140615 0.125
0.4475549223327189 0 0.125
0.4375 0 0.1312061819894663
0.4375 0.0625 0.176304879542409
0.36356153902285 0.125 0.125
0.375 0.125 0.1391362312844856
0.375 0.0625 0.1526592814832299
0.3526192391355993 0.0625 0.125
0.375 0.125 0.1306705102641665
0.375 0.0625 0.1504196164226779
0.4375 0.0625 0.1835400828935208
0.4375 0.125 0.1637909767350094
0.4375 0.125 0.1661896395742573
0.4919230094188357 0.125 0.125
0.5 0.1032856586469605 0.125
0.5 0.0625 0.1364819548384643
0.4375 0.0625 0.1837846031278861
0.125 0.1637191286491335 0.1875
0.09026221134982812 0.1875 0.1875
0.0625 0.1875 0.1289152999207514
0.0625 0.1862298340220546 0.125
0.125 0.1434434472892364 0.125
0.125 0.1643583546886005 0.1875
0.1875 0.1623005209320318 0.1875
0.1875 0.1462285967312185 0.125
0.125 0.1482864304877872 0.125
0.1875 0.1609209934135979 0.1875
0.2287847855190411 0.1875 0.1875
0.25 0.1875 0.1450610042977317
0.25 0.181043699857825 0.125
0.1875 0.1408064092732834 0.125
0.375 0.1378445852571769 0.125
0.375 0.125 0.1387748718326802
0.4375 0.125 0.1635742123607906
0.4375 0.1609691012312103 0.125
0.5 0.1257230719959437 0.125
0.5 0.125 0.1257757939606551
0.4375 0.125 0.1641217167220514
0.4375 0.1614630549212729 0.125
0.04761192419613398 0.25 0.1875
0.0625 0.2223809392484241 0.1875
0.0625 0.1877704446220027 0.125
0.02895511061937035 0.25 0.125
0.0625 0.1875 0.1364046248977398
0.0625 0.212688587031115 0.1875
0.08218232588270244 0.1875 0.1875
0.25 0.1875 0.1583507254572655
0.25 0.1996657458771786 0.1875
0.2392218527943834 0.1875 0.1875
0.271601836422741 0.25 0.1875
0.25 0.2115949629689513 0.1875
0.25 0.1875 0.1433471516625129
0.2556316891281372 0.1875 0.125
0.2907863167705949 0.25 0.125
0.03180396204417399 0.25 0.125
0.03918981116054794 0.3125 0.125
0.05574454138109579 0.3125 0.1875
0.04835869226472184 0.25 0.1875
0.2865287681962725 0.25 0.125
0.279484479984549 0.3125 0.125
0.2631744160333723 0.3125 0.1875
0.2702187042450959 0.25 0.1875
0.05425572794280711 0.3125 0.1875
0.0625 0.3256006315422563 0.1875
0.0625 0.3524844388803385 0.125
0.03733765640454467 0.3125 0.125
0.0625 0.3541227580490162 0.125
0.08514376522699345 0.375 0.125
0.1137407460378753 0.375 0.1875
0.0625 0.3277567327227726 0.1875
0.25 0.3616972400634726 0.125
0.2343478592928563 0.375 0.125
0.2049433257634319 0.375 0.1875
0.25 0.336706316591326 0.1875
0.263971402654762 0.3125 0.1875
0.25 0.3333444282379048 0.1875
0.25 0.3607475985293123 0.125
0.2823389357810507 0.3125 0.125
0.125 0.3794641865287033 0.1875
0.1171926433461709 0.375 0.1875
0.0884677261084174 0.375 0.125
0.125 0.3958888734306399 0.125
0.1875 0.3976070837671859 0.125
0.125 0.3951975247940465 0.125
0.125 0.3780409945229221 0.1875
0.1875 0.3804505534960614 0.1875
0.1875 0.3811857870414962 0.1875
0.1987732630907307 0.375 0.1875
0.2302676898836042 0.375 0.125
0.1875 0.3984671913311642 0.125
0.25 0.4979397767170125 0.1875
0.2465372632460361 0.5 0.1875
0.2199775929357839 0.5 0.125
0.25 0.482137578903674 0.125
0.25 0.4805496832191412 0.125
0.25 0.5 0.1810121977516069
0.2716024957427257 0.5 0.1875
0.3125 0.4957348476617623 0.1875
0.3125 0.474031632155122 0.125
0.3125 0.495099620477102 0.1875
[...]
CELL_DATA 587
SCALARS c float
LOOKUP_TABLE default
5
6
7
1005
1006
1007
2001
2002
2003
2005
2006
2007
3001
3002
3003
3004
4001
4002
4003
4004
5001
5002
5003
1000005
1000006
1000007
1001005
1001007
1002001
1002002
1002003
1002005
1002006
1002007
1003000
1003001
1003003
1003004
1004000
1004004
1005000
1005001
1005002
1005003
1005004
1006001
1006002
1006003
1007003
1007004
1007005
2000005
2000006
2000007
2001005
2001006
2001007
2002001
2002002
2002003
2002006
2002007
2003000
2003001
2003003
2003004
2004000
2004004
2005000
2005001
2005003
2005004
2006001
2006002
2006003
2007003
2007004
2007005
3002001
3002002
3002003
3003000
3003001
3003002
3003003
3003004
3004000
3004001
3004002
3004003
3004004
3005001
3005002
3005003
3005004
5000000
5000001
5001000
5001001
5001002
5001004
5001005
5002000
5002001
5002002
5002003
5002004
5002005
5003003
5003004
5003005
6000000
6000001
6000007
6001000
6001002
6001004
6001005
6001007
6002000
6002001
6002002
6002003
6002005
6002007
6003003
6003004
6003005
6005001
6005002
6005003
6006001
6006002
6006003
6006007
6007007
7000000
7000001
7000007
7001000
7001001
7001004
7001005
7001007
7002000
7002001
7002003
7002004
7002005
7002007
7003003
7003004
7003005
7005001
7005002
7005003
7005007
7006001
7006002
7006003
7006007
7007007
8000007
8001007
8002001
8002002
8002003
8002007
8003001
8003002
8003003
8005001
8005002
8005003
8005007
8006001
8006002
8006003
8006007
8007007
9001001
9001002
9001003
9002001
9002003
9003001
9003002
9003003
9007004
9007005
10001001
10001002
10001003
10002001
10002003
10003001
10003002
10003003
10006003
10006004
10006005
10006006
10007003
10007004
10007005
10007006
11000006
11000007
11001001
11001002
11001003
11001006
11001007
11002001
11002002
11002003
11002006
11002007
11003001
11003002
11003003
11005004
11005005
11006003
11006004
11006006
11007003
11007006
11007007
12000006
12000007
12001006
12001007
12002006
12002007
12003002
12003003
12004002
12004003
12005004
12005005
12006003
12006004
12006005
12006006
12007003
12007006
12007007
13001006
13001007
13002002
13002003
13002006
13002007
13003001
13003002
13003003
13003005
13003006
13003007
13004001
13004002
13004003
13004005
13004006
13004007
13005002
13005003
13005006
13005007
13006000
13006001
13006003
13006004
13006005
13006006
13007000
13007001
13007002
13007003
13007004
13007005
13007006
14002002
14002003
14003001
14003002
14003003
14003005
14003006
14003007
14004001
14004002
14004003
14004005
14004007
14005002
14005003
14005006
14005007
14006000
14006001
14007000
14007002
15003002
15003003
15003005
15003006
15003007
15004002
15004003
15004005
15004006
15004007
15005006
15005007
15006000
15006001
15007000
15007001
15007002
8003
8004
8005
9003
9004
9005
10003
10004
10005
1008003
1008004
1008005
1008006
1009003
1009006
1010003
1010004
1010005
1010006
1011004
1011005
2008003
2008005
2008006
2009003
2009006
2010003
2010004
2010005
2010006
2011004
2011005
2013002
2013003
2013004
2014002
2014003
2014004
2015002
2015003
2015004
3008003
3008004
3008005
3009003
3009004
3009005
3010003
3010004
3010005
3013002
3013003
3013004
3014002
3014004
3015002
3015003
3015004
4010000
4010001
4010002
4010005
4010006
4010007
4011000
4011001
4011002
4011005
4011006
4011007
4012000
4012001
4012002
4012005
4012006
4012007
4013002
4013003
4013004
4013005
4013006
4013007
4014002
4014003
4014004
4015002
4015003
4015004
5010000
5010001
5010002
5010003
5010005
5010006
5010007
5011000
5011003
5011004
5011005
5011007
5012000
5012001
5012002
5012004
5012005
5012007
5013005
5013006
5013007
6010000
6010001
6010002
6010003
6010005
6010006
6010007
6011000
6011002
6011003
6011004
6011005
6011007
6012000
6012001
6012002
6012004
6012005
6012007
6013005
6013006
6013007
7010001
7010002
7010005
7010006
7010007
7011001
7011002
7011005
7011006
7011007
7012005
7012006
7012007
7013005
7013006
7013007
9008004
9008005
10008003
10008004
10008005
10008006
10009004
10009005
10009006
10011000
10011001
10011002
10012000
10012001
10012002
10013000
10013001
10013002
11008003
11008006
11008007
11009003
11009004
11009005
11009006
11010001
11010002
11011000
11011002
11011003
11012000
11012003
11013000
11013001
11013002
12008003
12008004
12008006
12008007
12009003
12009004
12009005
12009006
12010001
12010002
12011000
12011001
12011002
12011003
12011004
12011005
12011006
12012000
12012002
12012003
12012004
12012005
12012006
12012007
12013000
12013001
12013002
12013004
12013005
12013006
12013007
12014005
12014006
13008000
13008001
13008002
13008003
13008004
13008005
13008006
13009004
13009005
13011001
13011002
13011004
13011005
13011006
13011007
13012001
13012002
13012004
13012007
13013004
13013007
13014004
13014005
13014006
14008000
14008001
14008002
14011004
14011005
14011006
14011007
14012004
14012005
14012006
14012007
14013004
14013005
14013006
14013007
14014004
14014005
14014006
15008000
15008001
15008002
15012004
15012005
15012006
15013004
15013005
15013006
SCALARS l float
LOOKUP_TABLE default
0
0
0
0
0
0
0
0
0
0
0
0
0
0
0
0
0
0
0
0
0
0
0
0
0
0
0
0
0
0
0
0
0
0
0
0
0
0
0
0
0
0
0
0
0
0
0
0
0
0
0
0
0
0
0
0
0
0
0
0
0
0
0
0
0
0
0
0
0
0
0
0
0
0
0
0
0
0
0
0
0
0
0
0
0
0
0
0
0
0
0
0
0
0
0
0
0
0
0
0
0
0
0
0
0
0
0
0
0
0
0
0
0
0
0
0
0
0
0
0
0
0
0
0
0
0
0
0
0
0
0
0
0
0
0
0
0
0
0
0
0
0
0
0
0
0
0
0
0
0
0
0
0
0
0
0
0
0
0
0
0
0
0
0
0
0
0
0
0
0
0
0
0
0
0
0
0
0
0
0
0
0
0
0
0
0
0
0
0
0
0
0
0
0
0
0
0
0
0
0
0
0
0
0
0
0
0
0
0
0
0
0
0
0
0
0
0
0
0
0
0
0
0
0
0
0
0
0
0
0
0
0
0
0
0
0
0
0
0
0
0
0
0
0
0
0
0
0
0
0
0
0
0
0
0
0
0
0
0
0
0
0
0
0
0
0
0
0
0
0
0
0
0
0
0
0
0
0
0
0
0
0
0
0
0
0
0
0
0
0
0
0
0
0
0
0
0
0
0
0
0
0
0
0
0
0
0
0
0
0
0
0
0
0
0
0
0
0
0
0
0
0
0
0
0
0
0
0
0
0
0
0
0
0
0
0
0
0
0
0
0
0
0
0
0
0
0
0
0
0
0
0
0
0
0
0
0
0
0
0
0
0
0
0
0
0
0
0
0
0
0
0
0
0
0
0
0
0
0
0
0
0
0
0
0
0
0
0
0
0
0
0
0
0
0
0
0
0
0
0
0
0
0
0
0
0
0
0
0
0
0
0
0
0
0
0
0
0
0
0
0
0
0
0
0
0
0
0
0
0
0
0
0
0
0
0
0
0
0
0
0
0
0
0
0
0
0
0
0
0
0
0
0
0
0
0
0
0
0
0
0
0
0
0
0
0
0
0
0
0
0
0
0
0
0
0
0
0
0
0
0
0
0
0
0
0
0
0
0
0
0
0
0
0
0
0
0
0
0
0
0
0
0
0
0
0
0
0
0
0
0
0
0
0
0
0
0
0
0
0
0
0
0
0
0
0
0
0
0
0
0
0
0
0
0
0
0
0
0
0
0
0
0
0
0
0
0
0
0
0
0
0
0
0
0
0
0
0
0
0
0
0
0
0
0
0
0
0
0
0
0
0
0
0
0
0
0
0
0
0
0
0
0
0
0
0
0
SCALARS cl float
LOOKUP_TABLE default
24
24
24
24
24
24
12
12
12
24
24
24
12
12
12
12
12
12
12
12
12
12
12
24
24
24
24
24
12
12
12
24
24
24
12
12
12
12
12
12
12
12
12
12
12
12
12
12
18
18
18
24
24
24
24
24
24
12
12
12
24
24
12
12
12
12
12
12
12
12
12
12
12
12
12
18
18
18
12
12
12
12
12
12
12
12
12
12
12
12
12
12
12
12
12
35
35
35
35
35
16
16
35
35
35
16
16
16
16
16
16
35
35
23
35
35
16
16
23
35
35
35
16
16
23
16
16
16
10
10
10
10
10
10
8
8
35
35
23
35
35
16
16
23
35
35
16
16
16
23
16
16
16
10
10
10
8
10
10
10
8
8
23
23
14
14
14
23
14
14
14
10
10
10
8
10
10
10
8
8
14
14
14
14
14
14
14
14
2
2
14
14
14
14
14
14
14
14
2
2
2
2
2
2
2
2
15
15
14
14
14
15
15
14
14
14
15
15
14
14
14
2
2
2
2
2
2
2
2
15
15
15
15
15
15
26
26
26
26
2
2
2
2
2
2
2
2
2
15
15
26
26
15
15
26
26
26
33
33
33
26
26
26
33
33
33
26
26
33
33
30
30
2
2
2
2
30
30
30
2
2
2
2
26
26
26
26
26
33
33
33
26
26
26
33
33
26
26
33
33
30
30
30
30
26
26
33
33
33
26
26
33
33
33
33
33
30
30
30
30
30
18
18
18
18
18
18
18
18
18
18
18
18
18
18
18
18
18
18
18
18
18
18
18
18
18
18
18
18
18
18
18
18
25
25
25
25
25
25
25
25
25
18
18
18
18
18
18
18
18
18
25
25
25
25
25
25
25
25
13
13
13
3
3
3
13
13
13
3
3
3
13
13
13
3
3
3
25
25
25
3
3
3
25
25
25
25
25
25
13
13
13
13
3
3
3
13
13
3
3
3
13
13
13
3
3
3
3
3
3
13
13
13
13
3
3
3
13
13
13
3
3
3
13
13
13
3
3
3
3
3
3
13
13
3
3
3
13
13
3
3
3
3
3
3
3
3
3
2
2
2
2
2
2
2
2
2
4
4
4
4
4
4
4
4
4
2
2
2
2
2
2
2
4
4
4
4
4
4
4
4
4
4
2
2
2
2
2
2
2
2
4
4
4
4
4
4
21
21
21
4
4
4
21
21
21
21
4
4
4
21
21
21
21
21
21
30
30
30
2
2
2
2
2
2
4
4
21
21
21
21
4
4
21
21
21
21
21
21
21
30
30
30
21
21
21
21
21
21
21
21
21
21
21
21
21
21
21
30
30
30
21
21
21
21
21
21
