# vtk DataFile Version 2.0
Interface from marching cubes
ASCII
DATASET POLYDATA
POINTS 453 float
0.4375 0.03178775705551912 0
0.4375 0 0.02407366313907061
0.4044982380798969 0 0.0625
0.4159329117618069 0.0625 0
0.3818889444059064 0.0625 0.0625
0.5 0.05232772540879938 0
0.5 0 0.03940153700881137
0.4375 0.125 0.02672017409068584
0.4375 0.09930480146799484 0
0.4160730012097953 0.125 0.0625
0.5 0.125 0.043201383807948
0.5 0.0755931815285097 0
0.4375 0.135531212685762 0.0625
0.5 0.1313107871133132 0.0625
0.125 0.2461707264043577 0
0.125 0.2005645056572123 0.0625
0.08316978442400333 0.25 0.0625
0.1216983627192963 0.25 0
0.1875 0.2403660218780663 0
0.1875 0.1972588668335099 0.0625
0.1964096015239084 0.25 0
0.2354708707505863 0.25 0.0625
0.125 0.3125 0.01618669645412413
0.125 0.2635335808592365 0
0.09247299018972263 0.3125 0.0625
0.1875 0.3125 0.01016919461735513
0.1875 0.283869718890729 0
0.225723911852088 0.3125 0.0625
0.125 0.3431344423313655 0.0625
0.1875 0.3460031459179704 0.0625
0.4263422539335558 0 0.125
0.4017287672676036 0.0625 0.125
0.5 0 0.1192312934147961
0.5 0.004407335817433376 0.125
0.4892918636958337 0 0.125
0.4375 0.119247336033216 0.125
0.4375 0.125 0.1151167941933784
0.5 0.1076431877788147 0.125
0.5 0.125 0.09501960287105224
0.125 0.1875 0.08075031015804184
0.125 0.1669243859452391 0.125
0.09520099672042565 0.1875 0.125
0.1875 0.1875 0.07616638751810603
0.1875 0.164947721020007 0.125
0.125 0.1669243859452391 0.125
0.222493194099139 0.1875 0.125
0.0625 0.25 0.09865288435274003
0.0625 0.2288323471281729 0.125
0.04799012329957863 0.25 0.125
0.0625 0.228832347128173 0.125
0.25 0.25 0.08564732404890957
0.25 0.2188952118578484 0.125
0.2675634909824479 0.25 0.125
0.0625 0.3125 0.1158515299500096
0.05747550785493565 0.3125 0.125
0.25 0.3125 0.1013691960776851
0.2608072546102653 0.3125 0.125
0.0625 0.3184714255829566 0.125
0.125 0.375 0.1244357189185464
0.1246065174325265 0.375 0.125
0.1875 0.375 0.118328129007651
0.192463320952683 0.375 0.125
0.25 0.327723898425797 0.125
0.125 0.375246984617452 0.125
0.1875 0.3778950681321802 0.125
0.3125 0.5 0.1209595453652604
0.3125 0.4981360157066772 0.125
0.2962688606328525 0.5 0.125
0.3155990731735852 0.5 0.125
0.4375 0 0.1305533145555718
0.4375 0.0625 0.1434301103216241
0.5 0.0625 0.1392705405885742
0.125 0.1849987917339649 0.1875
0.121453938864339 0.1875 0.1875
0.1875 0.1823310298611576 0.1875
0.195343731069077 0.1875 0.1875
0.0625 0.25 0.1653235033070331
0.06998161796565938 0.25 0.1875
0.25 0.25 0.1864760964363645
0.2496268002846461 0.25 0.1875
0.0625 0.3125 0.1387982213535998
0.07875143991352851 0.3125 0.1875
0.25 0.3125 0.1612243482616851
0.2403701035641013 0.3125 0.1875
0.125 0.3557095352690731 0.1875
0.125 0.375 0.1258248919545463
0.1875 0.3583551300217584 0.1875
0.1875 0.375 0.1347713783160215
0.3125 0.5 0.1301708799308901
0.125 0.1875 0.1904966527588474
0.1875 0.1875 0.1937062507092333
0.125 0.25 0.2336383346589723
0.1875 0.25 0.235931923735929
0.125 0.3125 0.2262518498386464
0.1875 0.3125 0.2286316777850417
0.0625 0.125 0.367758772982221
0.0625 0.09056458850779739 0.375
0.01963927755867918 0.125 0.375
0.07467044713948445 0.125 0.375
0.01963927755867918 0.125 0.375
0.0625 0.131727525239625 0.375
0.3125 0.1875 0.3559032861445512
0.3125 0.1516218594153701 0.375
0.27943326824899 0.1875 0.375
0.3393183569378949 0.1875 0.375
0.3125 0.2134234517457195 0.375
0.3393183569378949 0.1875 0.375
0.0625 0.125 0.3953003838411416
0.3125 0.1482703501003929 0.4375
0.2763483162921861 0.1875 0.4375
0.3418189332640207 0.1875 0.4375
0.2763483162921862 0.1875 0.4375
0.3125 0.2158366499413189 0.4375
0.3418189332640206 0.1875 0.4375
0.3125 0.1875 0.4589588999997045
0.125 0.375 0.4882905244228594
0.125 0.3729639561552466 0.5
0.1236161005615793 0.375 0.5
0.1328216109684354 0.375 0.5
0.125 0.3768623402106391 0.5
0.25 0.5625 0.04393717047309395
0.25 0.5450600679174139 0.0625
0.2343813065133174 0.5625 0.0625
0.3125 0.5625 0.03371571337890315
0.3125 0.5363627757690279 0.0625
0.3397295966487967 0.5625 0.0625
0.25 0.625 0.04828450053612132
0.2378699195445886 0.625 0.0625
0.3125 0.625 0.03821743941671804
0.3358478726357584 0.625 0.0625
0.25 0.6377474380675777 0.0625
0.3125 0.6461538119153982 0.0625
0.25 0.5054813520288727 0.125
0.1992238630500727 0.5625 0.125
0.375 0.5625 0.1159202003641283
0.375 0.5558307132523564 0.125
0.3792670072929681 0.5625 0.125
0.2018775384714286 0.625 0.125
0.375 0.625 0.1226468043397073
0.3761115373612391 0.625 0.125
0.25 0.6759440480080148 0.125
0.3125 0.6829482425718363 0.125
0.375 0.6266252021186263 0.125
0.25 0.5327954637418864 0.1875
0.2234123126653468 0.5625 0.1875
0.3125 0.5251487930311888 0.1875
0.375 0.5625 0.1366364353408323
0.3513731489219396 0.5625 0.1875
0.3125 0.5251487930311889 0.1875
0.226426614456663 0.625 0.1875
0.375 0.625 0.1280218953860824
0.3479650323194276 0.625 0.1875
0.25 0.6498230565401255 0.1875
0.3125 0.6572386228669785 0.1875
0.1875 0.875 0.1612655260470007
0.1875 0.849268423217992 0.1875
0.1654292920907703 0.875 0.1875
0.25 0.875 0.1594042081540078
0.25 0.8474442380476526 0.1875
0.2742008015368383 0.875 0.1875
0.1875 0.9375 0.1853401582310828
0.1856831135172177 0.9375 0.1875
0.25 0.9375 0.1829034185851376
0.2539592149508418 0.9375 0.1875
0.1875 0.9399121126913604 0.1875
0.25 0.9426274472202654 0.1875
0.25 0.5625 0.2107551288239482
0.3125 0.5625 0.2166602730510205
0.25 0.625 0.2081280860497357
0.3125 0.625 0.2141310508448827
0.1875 0.875 0.2467279503914674
0.2354389612992999 0.875 0.25
0.25 0.8744332470750658 0.25
0.2504974673294792 0.875 0.25
0.1875 0.9375 0.1923570993094472
0.25 0.8764678091078312 0.25
0.25 0.9375 0.1978436458588316
0.0625 0.6875 0.2967783016104981
0.0625 0.6697988839845824 0.3125
0.0349634681852555 0.6875 0.3125
0.125 0.6875 0.2805259279665525
0.125 0.6514885200316506 0.3125
0.164767762538708 0.6875 0.3125
0.375 0.6875 0.306135545489003
0.375 0.6813895556420851 0.3125
0.3676333942128293 0.6875 0.3125
0.4375 0.6875 0.2960858972920583
0.4375 0.6717655847306282 0.3125
0.5 0.6875 0.3049344625337068
0.5 0.6802399194728512 0.3125
0.0625 0.75 0.3065507293283175
0.03496346818525551 0.6875 0.3125
0.0524076642075477 0.75 0.3125
0.125 0.75 0.2889352937678747
0.1540901269640172 0.75 0.3125
0.375 0.75 0.2752531466597893
0.3319146122462521 0.75 0.3125
0.4375 0.75 0.2673916869391294
0.5 0.75 0.2737898180151306
0.0625 0.7560511358395061 0.3125
0.125 0.773980549496236 0.3125
0.375 0.8125 0.29341981781809
0.3529839939745663 0.8125 0.3125
0.4375 0.8125 0.284459015626556
0.5 0.8125 0.2923317782979637
0.25 0.875 0.2504299566808134
0.375 0.8325045085758077 0.3125
0.4375 0.8419055606632528 0.3125
0.5 0.8337708403365599 0.3125
0.0625 0.6572920054674465 0.375
0.01348398861939128 0.6875 0.375
0.125 0.6406434592204343 0.375
0.1770829833778367 0.6875 0.375
0.375 0.65619710467551 0.375
0.3369547168677178 0.6875 0.375
0.4375 0.6487288953312318 0.375
0.5 0.6547627809387059 0.375
0.03078506306129863 0.75 0.375
0.1671289365631338 0.75 0.375
0.3125 0.75 0.3583875887378231
0.3125 0.7354479757520245 0.375
0.3063830351659915 0.75 0.375
0.03078506306129864 0.75 0.375
0.0625 0.7682724415274752 0.375
0.125 0.7845094837281128 0.375
0.3125 0.7708142447814521 0.375
0.3258093173595553 0.8125 0.375
0.375 0.8571949478953357 0.375
0.4375 0.8654164350384801 0.375
0.5 0.8593544745072351 0.375
0.0625 0.6875 0.4068241138532862
0.125 0.6875 0.4245090024570137
0.375 0.6798399480463678 0.4375
0.3657677477411186 0.6875 0.4375
0.4375 0.6703632784504284 0.4375
0.5 0.6787311147230534 0.4375
0.0625 0.75 0.3962314148795681
0.125 0.75 0.4151986292491247
0.3125 0.75 0.3923074697324498
0.3305944496125114 0.75 0.4375
0.3513855751078792 0.8125 0.4375
0.375 0.8339629329165298 0.4375
0.4375 0.8432488827101551 0.4375
0.5 0.8352310992682944 0.4375
0.375 0.6875 0.4455672824145294
0.4375 0.6875 0.4555817223373612
0.5 0.6875 0.4467429149780155
0.375 0.75 0.4763856545740104
0.4375 0.75 0.4843531395577958
0.5 0.75 0.4778968407277446
0.375 0.8125 0.4582045526768813
0.4375 0.8125 0.4671669259036838
0.5 0.8125 0.45930361489606
0.125 0.375 0.5013480375296853
0.125 0.125 0.5863007961459162
0.125 0.09404964178881892 0.625
0.09166623354510992 0.125 0.625
0.1875 0.125 0.5874972963105038
0.1875 0.09501062286131975 0.625
0.2194257357014488 0.125 0.625
0.125 0.1875 0.575338926936902
0.08257843287796736 0.1875 0.625
0.1875 0.1875 0.5764588261917887
0.228477823236878 0.1875 0.625
0.125 0.2312776407651909 0.625
0.1875 0.230281870640075 0.625
0.125 0.1128766693198012 0.6875
0.1119597782686576 0.125 0.6875
0.1875 0.1140117218755733 0.6875
0.1991821693017729 0.125 0.6875
0.1012876419599901 0.1875 0.6875
0.2098224876805758 0.1875 0.6875
0.125 0.2120228190581679 0.6875
0.1875 0.2108564811877283 0.6875
0.25 0.4375 0.6785534201169141
0.25 0.4281843009153591 0.6875
0.2424913118468299 0.4375 0.6875
0.3125 0.4375 0.6401631917561397
0.3125 0.3883899518738426 0.6875
0.375 0.4375 0.6534020245188346
0.375 0.4021283758287261 0.6875
0.4096129258202668 0.4375 0.6875
0.25 0.5 0.66551780102696
0.2316937447768235 0.5 0.6875
0.3125 0.5 0.6294929730323897
0.375 0.5 0.6425658191912559
0.4206248929592027 0.5 0.6875
0.5 0.0625 0.7324426140484984
0.5 0.04485420922379153 0.75
0.4673879277704255 0.0625 0.75
0.125 0.125 0.6987814224233611
0.1875 0.125 0.6977286009441994
0.5 0.125 0.7187760342499787
0.4673879277704255 0.0625 0.75
0.4421499505847518 0.125 0.75
0.125 0.1875 0.7079530575564476
0.1875 0.1875 0.7069884604854346
0.5 0.1515792660877004 0.75
0.3125 0.375 0.7407587266347172
0.3125 0.372738623700296 0.75
0.307768562255907 0.375 0.75
0.3228359843396008 0.375 0.75
0.25 0.4094355763949762 0.75
0.2276575593933862 0.4375 0.75
0.375 0.386643197048653 0.75
0.4247791668210366 0.4375 0.75
0.2188187765158799 0.5 0.75
0.4357640621590226 0.5 0.75
0.5 0.0625 0.7789834363745658
0.5 0.125 0.8030359797884579
0.3125 0.375 0.7549081503092054
0.25 0.4375 0.7918713068811223
0.2694365564559062 0.4375 0.8125
0.3125 0.4074565066229627 0.8125
0.375 0.4234152340463186 0.8125
0.3887569189726788 0.4375 0.8125
0.25 0.5 0.8095185899669168
[...]
CELL_DATA 764
SCALARS c float
LOOKUP_TABLE default
6
6
6
7
7
1006
1006
1006
1007
1007
2006
2007
2007
3001
3001
3002
3002
3003
3003
4001
4001
4001
4002
4002
4003
4003
4003
5001
5002
5002
5003
1000006
1000006
1000007
1001006
1001006
1001006
1001007
1001007
1002001
1002002
1002002
1002003
1002006
1002007
1002007
1003000
1003001
1003001
1003001
1003001
1003002
1003002
1003003
1003003
1003003
1003003
1003004
1004000
1004000
1004001
1004001
1004003
1004003
1004004
1004004
1005000
1005001
1005001
1005001
1005001
1005002
1005002
1005003
1005003
1005003
1005003
1005004
1006001
1006002
1006002
1006003
1007004
1007005
2000006
2000006
2000007
2000007
2000007
2001006
2001007
2001007
2002001
2002001
2002002
2002002
2002003
2002003
2003000
2003001
2003001
2003001
2003003
2003003
2003003
2003004
2004000
2004000
2004001
2004001
2004003
2004003
2004004
2004004
2005000
2005001
2005001
2005001
2005001
2005002
2005002
2005003
2005003
2005003
2005003
2005004
2006001
2006002
2006002
2006003
2007004
2007005
3002001
3002002
3002002
3002003
3003001
3003001
3003002
3003002
3003003
3003003
3004001
3004001
3004002
3004002
3004003
3004003
3005001
3005002
3005002
3005003
5001000
5001001
5002000
5002001
5002004
5002005
5003004
5003005
6001000
6001001
6002000
6002001
6002004
6002004
6002005
6002005
6003004
6003004
6003005
6003005
7002004
7002005
7003004
7003005
7005001
7005002
7006001
7006002
8003
8004
8004
8005
9003
9003
9004
9004
9005
9005
10003
10004
10004
10005
1008003
1008003
1008004
1008004
1008004
1008005
1008005
1008005
1008005
1008006
1009003
1009003
1009005
1009005
1009006
1009006
1010003
1010003
1010004
1010004
1010005
1010005
1010005
1010006
2008003
2008003
2008004
2008004
2008004
2008005
2008005
2008005
2008005
2008006
2009003
2009003
2009005
2009005
2009006
2009006
2010003
2010003
2010004
2010004
2010005
2010005
2010005
2010006
2013002
2013003
2013003
2013004
2014002
2014002
2014003
2014003
2014004
2014004
2015002
2015003
2015003
2015004
3008003
3008004
3008004
3008005
3009003
3009003
3009004
3009004
3009005
3009005
3010003
3010004
3010004
3010005
3013002
3013003
3013003
3013003
3013004
3013004
3014002
3014002
3014003
3014003
3014003
3014004
3014004
3014004
3015002
3015003
3015003
3015004
4010000
4010001
4010001
4010002
4010005
4010006
4010006
4010007
4010007
4011000
4011000
4011001
4011001
4011002
4011002
4011005
4011005
4011006
4011006
4011007
4011007
4012000
4012001
4012001
4012002
4012005
4012005
4012006
4012006
4012007
4012007
4013003
4013004
4013005
4013006
4013006
4013007
4013007
4014003
4014004
5010000
5010000
5010001
5010001
5010002
5010002
5010005
5010005
5010006
5010006
5010007
5010007
5011000
5011000
5011002
5011002
5011004
5011005
5011005
5011005
5012000
5012000
5012001
5012001
5012002
5012002
5012004
5012005
5012005
5012005
5013005
5013005
5013006
5013006
5013007
5013007
6010000
6010001
6010001
6010002
6010005
6010005
6010006
6010006
6010007
6010007
6011000
6011000
6011001
6011001
6011002
6011002
6011004
6011005
6011005
6011005
6012000
6012001
6012001
6012002
6012004
6012005
6012005
6012005
6013005
6013005
6013006
6013006
6013007
6013007
7010005
7010006
7010006
7010007
7010007
7011005
7011005
7011006
7011006
7011007
7011007
7012005
7012005
7012006
7012006
7012007
7012007
7013005
7013006
7013006
7013007
7013007
8005001
8005002
8006001
8006002
9001001
9001002
9001002
9001003
9002001
9002001
9002002
9002002
9002003
9002003
9003001
9003002
9003002
9003003
10001001
10001001
10001002
10001002
10001003
10001003
10002001
10002001
10002003
10002003
10003001
10003001
10003002
10003002
10003003
10003003
10006003
10006004
10006004
10006005
10006005
10006006
10007003
10007003
10007004
10007004
10007005
10007005
10007006
10007006
11000007
11001001
11001002
11001002
11001003
11001007
11001007
11002001
11002001
11002002
11002002
11002003
11002003
11002007
11003001
11003002
11003002
11003003
11005004
11005005
11006003
11006003
11006004
11006004
11006004
11006005
11006005
11006005
11006006
11006006
11007003
11007003
11007006
11007006
12000007
12001007
12001007
12002007
12005004
12005005
12006003
12006004
12006004
12006004
12006004
12006005
12006005
12006005
12006006
12006006
12007003
12007003
12007004
12007004
12007006
12007006
13003001
13003002
13003002
13003003
13003006
13003007
13003007
13004001
13004002
13004002
13004003
13004006
13004006
13004007
13004007
13005006
13005007
13005007
13006004
13006005
13006005
13006006
13007000
13007000
13007001
13007004
13007004
13007005
13007005
13007006
13007006
14003001
14003002
14003002
14003003
14003006
14003006
14003007
14003007
14004001
14004002
14004002
14004003
14004006
14004006
14005006
14005006
14005007
14005007
14007000
14007000
14007001
14007001
15003006
15003006
15003007
15003007
15004006
15004006
15004006
15004007
15004007
15005006
15005007
15005007
15007000
15007000
15007001
10008003
10008004
10008004
10008004
10008005
10008005
10008006
10008006
10009004
10009005
10009005
10009006
10011000
10011001
10011001
10011002
10012000
10012000
10012001
10012001
10012002
10012002
10013000
10013001
10013001
10013002
11008003
11008003
11008004
11008004
11008006
11008006
11009004
11009004
11009005
11009005
11009006
11009006
11011000
11011000
11011001
11011001
11011002
11011002
11012000
11012000
11012002
11012002
11013000
11013000
11013001
11013001
11013002
11013002
12008003
12008004
12008004
12008004
12008004
12008005
12008005
12008006
12008006
12008006
12009004
12009005
12009005
12009006
12011000
12011001
12011001
12011002
12011005
12011006
12012000
12012000
12012001
12012001
12012002
12012002
12012004
12012005
12012005
12012005
12012006
12012006
12012006
12012007
12013000
12013001
12013001
12013002
12013004
12013005
12013005
12013005
12013006
12013006
12013006
12013007
12014005
12014006
13008000
13008000
13008001
13008004
13008005
13008005
13008006
13011004
13011005
13011005
13011005
13011006
13011006
13012004
13012004
13012004
13012005
13012006
13012006
13012007
13012007
13013004
13013004
13013005
13013005
13013006
13013006
13013007
13013007
13014005
13014005
13014006
13014006
14008000
14008000
14008001
14008001
14011004
14011005
14011005
14011006
14012004
14012004
14012005
14012005
14012005
14012006
14012006
14012006
14012006
14012007
14013004
14013005
14013005
14013005
14013005
14013006
14013006
14013006
14013006
14013007
14014005
14014006
15008000
15008000
15008001
15012005
15012006
15013005
15013006
SCALARS l float
LOOKUP_TABLE default
0
0
0
0
0
0
0
0
0
0
0
0
0
0
0
0
0
0
0
0
0
0
0
0
0
0
0
0
0
0
0
0
0
0
0
0
0
0
0
0
0
0
0
0
0
0
0
0
0
0
0
0
0
0
0
0
0
0
0
0
0
0
0
0
0
0
0
0
0
0
0
0
0
0
0
0
0
0
0
0
0
0
0
0
0
0
0
0
0
0
0
0
0
0
0
0
0
0
0
0
0
0
0
0
0
0
0
0
0
0
0
0
0
0
0
0
0
0
0
0
0
0
0
0
0
0
0
0
0
0
0
0
0
0
0
0
0
0
0
0
0
0
0
0
0
0
0
0
0
0
0
0
0
0
0
0
0
0
0
0
0
0
0
0
0
0
0
0
0
0
0
0
0
0
0
0
0
0
0
0
0
0
0
0
0
0
0
0
0
0
0
0
0
0
0
0
0
0
0
0
0
0
0
0
0
0
0
0
0
0
0
0
0
0
0
0
0
0
0
0
0
0
0
0
0
0
0
0
0
0
0
0
0
0
0
0
0
0
0
0
0
0
0
0
0
0
0
0
0
0
0
0
0
0
0
0
0
0
0
0
0
0
0
0
0
0
0
0
0
0
0
0
0
0
0
0
0
0
0
0
0
0
0
0
0
0
0
0
0
0
0
0
0
0
0
0
0
0
0
0
0
0
0
0
0
0
0
0
0
0
0
0
0
0
0
0
0
0
0
0
0
0
0
0
0
0
0
0
0
0
0
0
0
0
0
0
0
0
0
0
0
0
0
0
0
0
0
0
0
0
0
0
0
0
0
0
0
0
0
0
0
0
0
0
0
0
0
0
0
0
0
0
0
0
0
0
0
0
0
0
0
0
0
0
0
0
0
0
0
0
0
0
0
0
0
0
0
0
0
0
0
0
0
0
0
0
0
0
0
0
0
0
0
0
0
0
0
0
0
0
0
0
0
0
0
0
0
0
0
0
0
0
0
0
0
0
0
0
0
0
0
0
0
0
0
0
0
0
0
0
0
0
0
0
0
0
0
0
0
0
0
0
0
0
0
0
0
0
0
0
0
0
0
0
0
0
0
0
0
0
0
0
0
0
0
0
0
0
0
0
0
0
0
0
0
0
0
0
0
0
0
0
0
0
0
0
0
0
0
0
0
0
0
0
0
0
0
0
0
0
0
0
0
0
0
0
0
0
0
0
0
0
0
0
0
0
0
0
0
0
0
0
0
0
0
0
0
0
0
0
0
0
0
0
0
0
0
0
0
0
0
0
0
0
0
0
0
0
0
0
0
0
0
0
0
0
0
0
0
0
0
0
0
0
0
0
0
0
0
0
0
0
0
0
0
0
0
0
0
0
0
0
0
0
0
0
0
0
0
0
0
0
0
0
0
0
0
0
0
0
0
0
0
0
0
0
0
0
0
0
0
0
0
0
0
0
0
0
0
0
0
0
0
0
0
0
0
0
0
0
0
0
0
0
0
0
0
0
0
0
0
0
0
0
0
0
0
0
0
0
0
0
0
0
0
0
0
0
0
0
0
0
0
0
0
0
0
0
0
0
0
0
0
0
0
0
0
0
0
0
0
0
0
0
0
0
0
0
0
0
0
0
0
0
0
0
0
0
0
0
0
0
0
0
0
0
0
0
0
0
0
0
0
0
0
0
0
0
0
0
0
0
0
0
0
0
0
0
0
0
0
0
0
0
0
0
0
0
0
0
0
0
0
0
SCALARS cl float
LOOKUP_TABLE default
24
24
24
24
24
24
24
24
24
24
24
24
24
12
12
12
12
12
12
12
12
12
12
12
12
12
12
12
12
12
12
24
24
24
24
24
24
24
24
12
12
12
12
24
24
24
12
12
12
12
12
12
12
12
12
12
12
12
12
12
12
12
12
12
12
12
12
12
12
12
12
12
12
12
12
12
12
12
12
12
12
12
18
18
24
24
24
24
24
24
24
24
12
12
12
12
12
12
12
12
12
12
12
12
12
12
12
12
12
12
12
12
12
12
12
12
12
12
12
12
12
12
12
12
12
12
12
12
12
12
18
18
12
12
12
12
12
12
12
12
12
12
12
12
12
12
12
12
12
12
12
12
35
35
35
35
16
16
16
16
35
35
35
35
16
16
16
16
16
16
16
16
16
16
16
16
10
10
10
10
18
18
18
18
18
18
18
18
18
18
18
18
18
18
18
18
18
18
18
18
18
18
18
18
18
18
18
18
18
18
18
18
18
18
18
18
18
18
18
18
18
18
18
18
18
18
18
18
18
18
18
18
18
18
18
18
18
18
18
18
18
18
25
25
25
25
25
25
25
25
25
25
25
25
25
25
18
18
18
18
18
18
18
18
18
18
18
18
18
18
25
25
25
25
25
25
25
25
25
25
25
25
25
25
25
25
25
25
13
13
13
13
3
3
3
3
3
13
13
13
13
13
13
3
3
3
3
3
3
13
13
13
13
3
3
3
3
3
3
25
25
3
3
3
3
3
25
25
13
13
13
13
13
13
3
3
3
3
3
3
13
13
13
13
3
3
3
3
13
13
13
13
13
13
3
3
3
3
3
3
3
3
3
3
13
13
13
13
3
3
3
3
3
3
13
13
13
13
13
13
3
3
3
3
13
13
13
13
3
3
3
3
3
3
3
3
3
3
3
3
3
3
3
3
3
3
3
3
3
3
3
3
3
3
3
3
3
3
3
3
10
10
10
10
14
14
14
14
14
14
14
14
14
14
14
14
14
14
14
14
14
14
14
14
14
14
14
14
14
14
14
14
14
14
2
2
2
2
2
2
2
2
2
2
2
2
2
2
15
14
14
14
14
15
15
14
14
14
14
14
14
15
14
14
14
14
2
2
2
2
2
2
2
2
2
2
2
2
2
2
2
2
15
15
15
15
2
2
2
2
2
2
2
2
2
2
2
2
2
2
2
2
2
2
26
26
26
26
33
33
33
26
26
26
26
33
33
33
33
33
33
33
2
2
2
2
30
30
30
2
2
2
2
2
2
26
26
26
26
33
33
33
33
26
26
26
26
33
33
33
33
33
33
30
30
30
30
33
33
33
33
33
33
33
33
33
33
33
33
30
30
30
2
2
2
2
2
2
2
2
2
2
2
2
4
4
4
4
4
4
4
4
4
4
4
4
4
4
2
2
2
2
2
2
2
2
2
2
2
2
4
4
4
4
4
4
4
4
4
4
4
4
4
4
4
4
2
2
2
2
2
2
2
2
2
2
2
2
2
2
4
4
4
4
21
21
4
4
4
4
4
4
21
21
21
21
21
21
21
21
4
4
4
4
21
21
21
21
21
21
21
21
21
21
30
30
30
2
2
2
2
21
21
21
21
21
21
21
21
21
21
21
21
21
21
21
21
21
21
21
21
21
21
21
21
21
21
30
30
30
30
21
21
21
21
21
21
21
21
21
21
21
21
21
21
21
21
21
21
21
21
21
21
21
21
21
21
30
30
30
21
21
21
21
POINT_DATA 453
VECTORS nn float
0.1015822057012122 -0.1620798695627727 -0
0.1006742679182787 -0 -0.1620798695627728
-0.2647096054238129 -0 -0.3376711172345313
-0.1236623015690821 -0.2768310741063214 -0
-0.562460499037333 -0.1772416372130985 -0.2471891351911016
-0 -0.258791331852481 -0
-0 -0 -0.2587913318524812
0.07242175927102629 0.5874385214685367 -0.1093272001512676
0.09110704896585299 0.2132418249372566 -0
-0.1270343170364173 0.5217154307299923 -0.2290299786128652
-0 0.5808030815359745 -0.1898355928956752
-0 -0.1292843884690968 -0
0.05671251011026061 0.538388565601588 -0.2336184186240651
-0 0.559566037211881 -0.2584670221005688
-0.3228929471380699 -0.2082451512601771 -0
-0.174424008005516 -0.4398199088313132 -0.4304395272178458
-0.4439172908754443 -0.09950039267121968 -0.4217529042364439
-0.3332173071953837 -0.1906878689613798 -0
0.2540434058499264 -0.2355933965705079 -0
0.1403393941800254 -0.4691621879174565 -0.4283530456239302
0.2905974747395795 -0.1885407063473821 -0
0.4665944875653717 -0.1005929436650834 -0.4197070102559928
-0.2704243280512365 0.3316941541011323 -0.1307645674136342
-0.3236150058737518 -0.07505419994196967 -0
-0.365692077462341 0.2144030062579103 -0.4331083824026603
0.2300779749290889 0.3550437703080777 -0.08092303702246773
0.2564515056245088 0.1126824740859255 -0
0.3797166556936484 0.2120136570338705 -0.4301090038852708
-0.1801657955781064 0.3789098080263415 -0.4327660689857853
0.1426353750390164 0.399665206978173 -0.428800323527766
-0.01672225403082328 -0 0.5639312231091367
-0.2810805866747329 -0.1645961691239 0.4585919348148758
-0 -0 0.4864368036512551
-0 -0.01542678436994761 0.5776508492681516
0.01542678436994759 -0 0.5823100902470701
0.05226868879541657 0.4316961623894512 0.4423987757494048
0.05240784324985118 0.5105492398762614 0.3212423590570111
-0 0.3005982486584575 0.4765405984715361
-0 0.5456713311050625 0.09595979362258505
-0.1694098470421032 -0.5600607790209632 -0.3082440531404093
-0.1546575508870953 -0.5423987511679313 -0.03339760202158835
-0.3308304884076411 -0.5485178523462877 -0.03336304330360439
0.1368345004046128 -0.5565784595798542 -0.3394813587723874
0.1230309120833814 -0.5337570329759328 -0.03232054962506713
-0.1546575508870953 -0.5423987511679313 -0.03339760202158835
0.3436388090113909 -0.5414550209685647 -0.03223023534446298
-0.6950469091545273 -0.09139745581330735 -0.1868383276583951
-0.693058363852776 -0.2107132806974659 -0.03166245816485413
-0.6010926761978765 -0.1024216406410507 -0.03582126825932486
-0.6930583638527761 -0.2107132806974659 -0.03166245816485413
0.6181445520736053 -0.095062346588627 -0.2709919631827448
0.6123679837614313 -0.2797167124958956 -0.03143347132096331
0.5896117391023118 -0.08700829496537574 -0.03071441368678877
-0.7026995470940719 0.2089890934627494 -0.08524250942609826
-0.6762632519388939 0.2129772767733636 -0.03698042249310225
0.6299307341371376 0.2041139027794527 -0.1700221790527434
0.6180261315926505 0.1951080769202981 -0.0350828136248189
-0.7022069058405302 0.2309490081677167 -0.03593048822484168
-0.1748355006304168 0.7885204150491405 -0.03791283271014543
-0.1763811021688246 0.7885333766791877 -0.03494496632910047
0.1342510842705087 0.7876011374977478 -0.06983342687923257
0.1570621838960043 0.7877845413286754 -0.03352272788217757
0.6278121427046731 0.2670670697419519 -0.03538898585203597
-0.1746333476015393 0.7882491602391957 -0.034927178488637
0.1322640218456125 0.7840894970694133 -0.03327971393351025
0.1388620877838615 -0.7901584885870859 -0.05322224097023827
0.1379859319976181 -0.7886683438243889 -0.02921683981724496
0.04008729656421871 -0.7893231917461441 -0.02997418626880791
0.1538746309246049 -0.7905103609085299 -0.02933346600154208
0.08483056052203761 -0 0.5720106797147892
0.05926912894539051 -0.1730129420474312 0.5044727646630323
-0 -0.1937760197081486 0.5172653063758925
-0.1901668749542045 -0.5813615111704995 0.3200876080551535
-0.2046891673245593 -0.5816916876120194 0.3209197883772116
0.1511833429878167 -0.5724197941751968 0.3100906288806718
0.1871666872509635 -0.5732026361379118 0.3118899686321116
-0.7014511121482461 -0.1006481276435424 0.1911742139900451
-0.5994245359485737 -0.1065314846396154 0.3072558083953135
0.6412808630664733 -0.1113383102120159 0.3103132293003663
0.6371678997599722 -0.1116584673189664 0.3154678380747487
-0.7043479181417156 0.2130625626548844 0.03849091986609526
-0.4941455583206098 0.2235945328630733 0.3091172251348352
0.6391652226238482 0.2167738628796713 0.1668174829334843
0.5288266164126776 0.2256394421142748 0.3137990193716321
-0.1810631974812058 0.4992434369651326 0.3091993238986429
-0.1749621158534588 0.7885902463378226 -0.03052953182231734
0.1430763644040505 0.5298774311772113 0.3084921596326846
0.1356685058487609 0.7884961010366413 0.01968687255936526
0.1390692431896786 -0.7899726416198282 0.002635800299575119
-0.190389859936529 -0.5815732845268011 0.3283883019975109
0.1514817170565737 -0.5729924291014733 0.3284313263514625
-0.1750880809160369 -0.1027252306675332 0.6128986402507184
0.1383906556847288 -0.1017369133054764 0.6510857740932715
-0.1814587055865703 0.2209089877927478 0.5166070785171861
0.1433814584442456 0.2185408485196745 0.5436791223139218
-0.1121197164278512 0.4037301863293422 -0.3316973251408988
-0.1087168988253195 -0.1256619340632907 -0.2994483621605392
-0.03735164682061799 0.428626446050793 -0.3272700977928073
0.008941934177439534 0.3995826966065178 -0.3002617508121876
-0.03735164682061798 0.428626446050793 -0.3272700977928072
-0.1121203741602902 0.4213666160662013 -0.3041477963565713
0.04539235547119122 0.08425898362900588 -0.5189950910339036
0.04099518894099706 -0.3023010584009983 -0.4638074864457749
-0.2906855406033294 0.0784890548280486 -0.4667614165372281
0.2951146138008536 0.08051956949328007 -0.4680905595270183
0.04446357339978826 0.3045182473472849 -0.4718624185673523
0.2951146138008536 0.08051956949328007 -0.4680905595270183
-0.1088425009127247 0.3988581114187048 -0.03258328174897293
0.04121040106554386 -0.3493480100073951 0.424688603441133
-0.3317640341810534 0.07904269680488976 0.4279679325413367
0.3265644311217246 0.08131619857402138 0.4294432585141826
-0.3317640341810533 0.07904269680488976 0.4279679325413367
0.04508845253491227 0.3327366674700157 0.433629171131024
0.3265644311217245 0.08131619857402136 0.4294432585141825
0.04622769401198516 0.08566485747849276 0.4984508709519111
-0.4052966239764834 0.04439874358399929 0.2656259355214356
-0.4052592464295041 0.02650466383811223 0.4426512953287897
-0.4096540104962357 0.04484498849046256 0.4437775318584256
-0.2931424635248159 0.04440227826192111 0.4426975934916129
-0.406068086978326 0.05837345344122731 0.4434665887216596
-0.2688181217353705 -0.1958570928296728 -0.4247203901188834
-0.2363233253073942 -0.2630004198263847 -0.5345444154095906
-0.3078140626653089 -0.1713329910027983 -0.5337893478202965
0.1767134330311732 -0.206486667864234 -0.3336842460544491
0.1367015950811408 -0.3129898495228935 -0.5246749482214889
0.3043313242978413 -0.157022517093718 -0.5238348324428987
-0.2659160195336051 0.2362953953739976 -0.4607927817055568
-0.2961688675885061 0.2153783249620116 -0.5401028365466575
0.17237925548427 0.2456191380938174 -0.3754264093362755
0.278860261891486 0.1997434031654403 -0.5280817083651421
-0.2448533067765786 0.2735368917668698 -0.5410668879403665
0.1438614916380729 0.3090219997257119 -0.530002172834676
-0.2407520990245582 -0.6813797432686568 -0.03066322932589284
-0.6951973818642772 -0.1585833915296659 -0.02852399187403795
0.7350981639495042 -0.1588873131894432 -0.08441776571854678
0.7359135478922957 -0.1905095253362646 -0.02977316492717861
0.7315549451961095 -0.1569097946894991 -0.02957134773728141
-0.6451849533756058 0.2010421982713595 -0.02964443778943697
0.7343021945118686 0.2080004572687447 -0.04486166493190045
0.7334635857917903 0.207397313597162 -0.03129148416733712
-0.249066275854004 0.6364866128636031 -0.03140123833563732
0.1473059060128514 0.7674130476821774 -0.03094723650215416
0.7344929710210558 0.2142848909722932 -0.03134284716871236
-0.2348968434619734 -0.3527096575969261 0.4188178181992733
-0.382430569444879 -0.1728026015514403 0.4155391857184224
0.1382860938465605 -0.4155230922311453 0.4097279423231662
0.735777097161476 -0.1594951265590346 0.04352241384121952
0.412234392035429 -0.1599311307460635 0.4109296042047638
0.1382860938465605 -0.4155230922311453 0.4097279423231662
-0.3651773954125705 0.2154666344865372 0.4223716802407746
0.734483582928388 0.2081235437451561 -0.01288589962906227
0.3810680302496975 0.2014105274750147 0.4146567845423106
-0.2446586535792135 0.3488202777579429 0.4252302619319183
0.1460753971717526 0.3968326556824287 0.4150254879636995
-0.3869193008201826 -0.1898046390129312 -0.3489411257280112
-0.3888606897728029 -0.3573097077617265 -0.1669968865851941
-0.4588409850324703 -0.191265458400515 -0.1667964387971175
0.3577152803670864 -0.192300054939431 -0.3684955574454003
0.3598175352486834 -0.3755580347928349 -0.1693828267868667
0.4497910473547745 -0.1942574607000682 -0.1694917952057556
-0.3613186743687911 0.5136071061174353 -0.1568874421016457
-0.3659816459362515 0.5137299071619189 -0.1451586564416304
0.3319741116584547 0.5162047945255648 -0.172746933218075
0.3438233286526765 0.5165271165382691 -0.1472812816849258
-0.3640636778793832 0.502326958453706 -0.1471934998829467
0.3378740789624107 0.4916787149253609 -0.1516440588737115
-0.2381124279404342 -0.1785070301354848 0.4700125329058511
0.143630120307277 -0.1664828416578322 0.4833178239223841
-0.2446581065233078 0.2203738978146486 0.4677708365655197
0.1486248459660245 0.2069503969560373 0.4768805673295887
-0.3630215580312819 -0.1684689517398259 0.4926125836272365
0.1728467773843335 -0.1688719605264137 0.5407873357449939
0.3322565684592352 -0.1721911844669159 0.5413897061810593
0.3336503902483092 -0.1693880845332211 0.5413963793739252
-0.3597916745820526 0.511970876040391 -0.1038805480734147
0.3317757288095696 -0.1566336028283316 0.5408822888807414
0.3286860592445392 0.5126532586909678 -0.05709000146635834