<?xml version="1.0"?>
<VTKFile type="StructuredGrid" version="0.1" byte_order="LittleEndian">
  <StructuredGrid WholeExtent="0 8 0 8 0 8">
    <Piece Extent="0 8 0 8 0 8">
      <PointData>
      </PointData>
      <CellData>
        <DataArray Name="vy" NumberOfComponents="1" type="Float32" format="ascii">
0.89553576700226611429 0.97465921366529073566 0.95029696489627901723 0.94808425526052508836 0.94810512569743665701 0.95031371577833123609 0.97466643867667468459 0.8955264112497802742 0.74972637880877690542 0.9321572515388392155 0.88484603361776259511 0.87346287969884695013 0.87361056338857157044 0.88487906088404055804 0.93218805346917577026 0.74973717753614210757 0.57011480602292041731 0.83533358589689277185 0.80723516889040758393 0.78473363402598150795 0.78480957087874625433 0.80725277812086793094 0.83534789301472334166 0.57012717022322600968 0.43966226353364040724 0.73832622792353641561 0.74294469259562911923 0.71842734625673643212 0.71849373762598678361 0.74296682495921706479 0.73832868462199929827 0.4396668657668260094 0.37025641746656801079 0.66648841839143757593 0.69827011097737268219 0.68028292919326549537 0.68029127400543820681 0.69826870325928769301 0.6664981010894892588 0.37026035116166694516 0.33042311956235348447 0.61620626465434980013 0.66734609900380637004 0.65873628852329335626 0.65864411804912226245 0.66732905415508214642 0.61618246832910117394 0.33043908709061531326 0.3053125825672378113 0.58132688240524532652 0.64464526627774865197 0.64416638578446638874 0.64390708883648895 0.64457833551845067355 0.58132021619182605576 0.30531726042515622277 0.30097576503356293642 0.57302235456598804575 0.63597766741608563468 0.64079760936902740998 0.64067845899133080145 0.63595549793421102258 0.57300044204436617612 0.30098379546658732275 0.974661493486037811 1.075457093050130597 1.0414964671810422736 1.0404674443124526384 1.0404661895429871965 1.0414830178801839367 1.0754306482057354177 0.97466473477279891302 0.93217599575753373742 1.2004348420860304625 1.128819742295621209 1.1173354397768398005 1.1172738525855849812 1.1287461227539152819 1.2004420602058643031 0.93215280108569587014 0.83533230629023280667 1.2662185945956070388 1.2114643586585591706 1.1823665980139892451 1.182317407259285913 1.211461170958952227 1.2661838540137879683 0.83535014263441698112 0.73833130868691598803 1.278724364540587688 1.2690600040488075884 1.2290176768374363458 1.2290058874460274563 1.2690169923554099896 1.2787347620227202949 0.7383174836155366183 0.66648363565694079824 1.2617058339589932725 1.2998826054095842242 1.2594764053304698947 1.2594278117663493255 1.2998800999429467318 1.2616356245936983793 0.66649545555990619139 0.61619730304923669983 1.2320387706059354738 1.3120321566609725039 1.2787196336499788707 1.2787543031971835283 1.3119848127932989268 1.2320449089646270391 0.61619232581150162886 0.58133101008168674984 1.1975666960719999476 1.309527969286296889 1.2866288978549844657 1.2867319385406872367 1.3095837937696352959 1.1975407125634436323 0.58132806868617459273 0.57301721885723533312 1.1770819509738321695 1.3083189545299005463 1.2993311156743820867 1.2995105316207828938 1.3083271458124137165 1.1770702984605243557 0.57300415092761469715 0.95029074703847604688 1.0414994309211595969 1.0109976950416821317 1.009498081245152834 1.009507186192864614 1.010982252007010862 1.0415043319373051833 0.9502985929631005968 0.88485454128097662529 1.1287989464338410439 1.0631562505385498962 1.0511465630254699377 1.0511870288769622483 1.0631505953504205575 1.1287954841037408649 0.88486211178977480785 0.80722971924064845783 1.2114738130188764664 1.1602296286018152216 1.1314650869970763747 1.131473959685832309 1.160200328791086033 1.2114655726932808122 0.80723676665135857267 0.74293718640640382667 1.269065210188848658 1.2567959141213433938 1.2173744822506680219 1.2173798969510241097 1.2567962309997942061 1.2690363101677919477 0.74298027764234286785 0.69829150553522523204 1.2998514099941242961 1.3305997117085743842 1.2891491208325909223 1.2891915045705526488 1.330594272078586604 1.2998945308541944854 0.6982627999824365661 0.66734712956579367304 1.3120248165036747512 1.3824212039849284039 1.3456370164369459985 1.3456095310584128555 1.3824723971474053297 1.3119934620261759495 0.66733713899055779883 0.64462150880385427065 1.3095386931793804308 1.4128464795927309083 1.3838026673882217743 1.3836998665206079462 1.4127464483401228623 1.3095763403634701483 0.64459808924072936609 0.63596307356990022797 1.3083411062653973467 1.437378656358013318 1.4204441170994164256 1.4203224541453667307 1.4373626495745639442 1.3083220938215229801 0.63597306694217448086 0.9480542819308949154 1.0405268154813822612 1.0094907647025808117 1.0080900690710752343 1.0080845185379774254 1.0094993011605801758 1.0405015951797265128 0.9480372059898136694 0.87349324180758203262 1.1173326493187929476 1.0511689372973491707 1.0392453811690698373 1.0392336315710413164 1.0511795281091111942 1.1172918682159218573 0.87353245779530441784 0.78475673124723988039 1.1823695293463425404 1.1314770197316859068 1.102815526013831926 1.1028193040819826987 1.1314651586653519111 1.1823565830035294155 0.78475356098848370046 0.71845933032568476406 1.2290136662203896556 1.217378368958044188 1.1786978711267412923 1.1786600122465016316 1.217373810388243438 1.2290235673898040059 0.71846293002306671482 0.68028857087728566988 1.2594776571303354373 1.2891547686878188639 1.249562529586370152 1.2495342021195277038 1.2891993304909865614 1.259430754157325083 0.6803179391044178459 0.65875964428617583835 1.2787040193633925078 1.3456535991244227279 1.3112153239867270216 1.3112400965174668688 1.3456016349642689889 1.2787530905163182471 0.65866001204155932847 0.64413701135211776094 1.286599283870697219 1.3838386320089184345 1.357013406302227887 1.3570034570906086557 1.3837124323769904866 1.286726129246528405 0.64390213714764077402 0.64076217194639861763 1.299359378493087025 1.4204120837958511547 1.4045680732424901116 1.4045214825107024126 1.4203640416483678255 1.299475821627246841 0.640670991958464775 0.94814821274254823535 1.0404008748751849556 1.0095180677890736032 1.0080794331220013227 1.0080920543194555883 1.009507254003509491 1.0404479786789939677 0.94813688140241680902 0.8736006021428084356 1.11725358568037203 1.0511674651099212063 1.0392203891979012731 1.0392525667222201058 1.0511501008409971369 1.1173291985784155056 0.87353004094001396318 0.78479724080165347289 1.1823094728744194537 1.1314584811440961953 1.1028018188920891696 1.1027854955995430863 1.1314790505223568662 1.1823148080197742882 0.7847954821999096886 0.71846296365759831914 1.2290117514605520821 1.217351897065086952 1.1786682228931750771 1.1787009112063209226 1.2173467766230978704 1.2290287586028427746 0.71844712306026980997 0.68028728887057465791 1.2594009911971797422 1.2891858678755039325 1.2495427421255911327 1.2495439116974595972 1.2891516804058495982 1.2594703464095804435 0.68024069467353609486 0.65862202946401304793 1.2787508043884618925 1.3455847931286875063 1.3112202851957059924 1.3112179725125843177 1.3456212336381843109 1.2787125707917654793 0.65871186371064538445 0.6439022603818742585 1.2867347197438947504 1.3836884527645836318 1.356997175980385606 1.3570233024537703415 1.3838111413939082617 1.2865920104996768636 0.64414923135004842347 0.64067482577190049131 1.2994512160116864496 1.4203373191351515992 1.4045759603426055673 1.4046387058671427894 1.4204145165181711885 1.2992999259199553563 0.64077499451771968708 0.95033537982914395581 1.0414691533521052147 1.010983288133418867 1.0094947888358438703 1.0095152306658858876 1.0109868688613041776 1.0414667439104043911 0.95031291167424858379 0.88489122543299625345 1.1287485169661117812 1.063149449190864626 1.051184330223781993 1.0511480591609927426 1.0631562556613025627 1.1287460206789283745 0.88487567742050998731 0.80725757412709264749 1.2114553577627327208 1.1601847467270804959 1.1314528878817211588 1.1314877972654897587 1.1601954490278973964 1.2114868166236021363 0.80723953823454008827 0.74297652747739584278 1.2690161941519706446 1.2567776455150891923 1.2173674134659089319 1.2173290688082889499 1.2568091470160649425 1.2690148188592573764 0.74294006497003717282 0.69824710279733459561 1.2999064293209570131 1.3305799292673856637 1.2891902488545274874 1.289160696547486884 1.3305972146335842687 1.2998597101331159642 0.69827296404940719654 0.66731968281423315048 1.3120059811003270678 1.3824264324352386613 1.3455947858125110184 1.3456199318252199948 1.3824205403098479561 1.312031417706386538 0.66732681346144573364 0.64459147197287947062 1.3095613797391050248 1.4127586305700847724 1.383693338437905096 1.3838551820636426637 1.4128625177782276889 1.3095247134677181489 0.64461507913094528988 0.63594942972939860759 1.308293010181870164 1.4373729517284794532 1.4203338864345165238 1.420427913990866875 1.4373678020876614614 1.3082859987699468896 0.63596101470145882661 0.97467917017054972462 1.0754183467873745794 1.0414904444585884047 1.0404581830294195033 1.040485433424174877 1.04146977298890131 1.0754611844041570556 0.97465140544373540799 0.93216811839392799133 1.2004462194957348231 1.1287536714203927346 1.1172640978719170501 1.1173338120980225163 1.1287694313790523903 1.2004819575497531758 0.93216790903787949407 0.83536681749024022103 1.2661625987440423557 1.211453227012841305 1.1823336448340309168 1.1823327719600118524 1.2115027737239414396 1.2661799204874930602 0.83534272988001778693 0.73833101169329562463 1.2787246570333348217 1.2690292452412363922 1.2289870728780216691 1.2290671482031489958 1.2690262685468725046 1.2788039491088876165 0.73831448940012744941 0.66649952803357892517 1.2616519617648147555 1.2998602058429111761 1.2594233795600315862 1.2594522027618200166 1.2998891501190827924 1.2617122582822897225 0.66647964503095780131 0.61619132242052299109 1.2320316262251069794 1.3120039861546368698 1.2787394803695604217 1.2787071033353347715 1.3120347290069471757 1.2320115023064155402 0.6162024257077374223 0.58131287713164447872 1.1975391904806831356 1.3095481699551578814 1.2867241355629639443 1.2865672532769021341 1.3095412434403050916 1.197522313473729616 0.58131675160021989424 0.57300854217281049774 1.1770365394699169315 1.3082920907395092502 1.2994347460165309727 1.2993100850751551079 1.308304099697411349 1.1770653008050302457 0.57301437876621019729 0.89553557130845673484 0.97466513058092496546 0.95031397682978580033 0.94810293323443994851 0.948084150753153998 0.95031300515088945602 0.97466602051912087923 0.89552464557406075141 0.74974714814209098002 0.93216214795724094966 0.88487940574461343424 0.8735542300886107725 0.87352867779966147932 0.88487909338557957373 0.93215736707131968686 0.74972066508301504761 0.57012778744493208816 0.83535954447526572508 0.80724479215089517403 0.78479479248744321573 0.784765036757054113 0.80723085117121173848 0.83535096991067570027 0.57012148271885898509 0.43967098829170214724 0.73832861605901789481 0.74295558647244031025 0.71847079965849935945 0.71844051259408703292 0.74296694717900158 0.7383107782804064767 0.43967566806804969648 0.37026589377995261509 0.66648715629275956385 0.69824881646927283718 0.6802438396121452957 0.68031646350280894353 0.69828676154168556334 0.66648459613910615573 0.37025707204216751212 0.3304399888532918439 0.61618717270223444249 0.66731085218511565493 0.65859492600602487222 0.65877834055492168197 0.66734479321348127989 0.61620748199538011303 0.33042353858980794135 0.30531700376717696432 0.5813180067737876433 0.64458883399730027008 0.64390185173218728032 0.64411528045582067126 0.64461377070439651593 0.58132362125253256302 0.30531683008635257526 0.30097904940329828216 0.57300999657967266465 0.63596347439275546787 0.64067361552496437938 0.64073336657280532958 0.63595002782620491111 0.57301151689506402143 0.30097867995186816659 
        </DataArray>
      </CellData>
      <Points>
        <DataArray Name="m" NumberOfComponents="3" type="Float32" format="ascii">
0 0 0 0.125 0 0 0.25 0 0 0.375 0 0 0.5 0 0 0.625 0 0 0.75 0 0 0.875 0 0 1 0 0 0 0.125 0 0.125 0.125 0 0.25 0.125 0 0.375 0.125 0 0.5 0.125 0 0.625 0.125 0 0.75 0.125 0 0.875 0.125 0 1 0.125 0 0 0.25 0 0.125 0.25 0 0.25 0.25 0 0.375 0.25 0 0.5 0.25 0 0.625 0.25 0 0.75 0.25 0 0.875 0.25 0 1 0.25 0 0 0.375 0 0.125 0.375 0 0.25 0.375 0 0.375 0.375 0 0.5 0.375 0 0.625 0.375 0 0.75 0.375 0 0.875 0.375 0 1 0.375 0 0 0.5 0 0.125 0.5 0 0.25 0.5 0 0.375 0.5 0 0.5 0.5 0 0.625 0.5 0 0.75 0.5 0 0.875 0.5 0 1 0.5 0 0 0.625 0 0.125 0.625 0 0.25 0.625 0 0.375 0.625 0 0.5 0.625 0 0.625 0.625 0 0.75 0.625 0 0.875 0.625 0 1 0.625 0 0 0.75 0 0.125 0.75 0 0.25 0.75 0 0.375 0.75 0 0.5 0.75 0 0.625 0.75 0 0.75 0.75 0 0.875 0.75 0 1 0.75 0 0 0.875 0 0.125 0.875 0 0.25 0.875 0 0.375 0.875 0 0.5 0.875 0 0.625 0.875 0 0.75 0.875 0 0.875 0.875 0 1 0.875 0 0 1 0 0.125 1 0 0.25 1 0 0.375 1 0 0.5 1 0 0.625 1 0 0.75 1 0 0.875 1 0 1 1 0 0 0 0.125 0.125 0 0.125 0.25 0 0.125 0.375 0 0.125 0.5 0 0.125 0.625 0 0.125 0.75 0 0.125 0.875 0 0.125 1 0 0.125 0 0.125 0.125 0.125 0.125 0.125 0.25 0.125 0.125 0.375 0.125 0.125 0.5 0.125 0.125 0.625 0.125 0.125 0.75 0.125 0.125 0.875 0.125 0.125 1 0.125 0.125 0 0.25 0.125 0.125 0.25 0.125 0.25 0.25 0.125 0.375 0.25 0.125 0.5 0.25 0.125 0.625 0.25 0.125 0.75 0.25 0.125 0.875 0.25 0.125 1 0.25 0.125 0 0.375 0.125 0.125 0.375 0.125 0.25 0.375 0.125 0.375 0.375 0.125 0.5 0.375 0.125 0.625 0.375 0.125 0.75 0.375 0.125 0.875 0.375 0.125 1 0.375 0.125 0 0.5 0.125 0.125 0.5 0.125 0.25 0.5 0.125 0.375 0.5 0.125 0.5 0.5 0.125 0.625 0.5 0.125 0.75 0.5 0.125 0.875 0.5 0.125 1 0.5 0.125 0 0.625 0.125 0.125 0.625 0.125 0.25 0.625 0.125 0.375 0.625 0.125 0.5 0.625 0.125 0.625 0.625 0.125 0.75 0.625 0.125 0.875 0.625 0.125 1 0.625 0.125 0 0.75 0.125 0.125 0.75 0.125 0.25 0.75 0.125 0.375 0.75 0.125 0.5 0.75 0.125 0.625 0.75 0.125 0.75 0.75 0.125 0.875 0.75 0.125 1 0.75 0.125 0 0.875 0.125 0.125 0.875 0.125 0.25 0.875 0.125 0.375 0.875 0.125 0.5 0.875 0.125 0.625 0.875 0.125 0.75 0.875 0.125 0.875 0.875 0.125 1 0.875 0.125 0 1 0.125 0.125 1 0.125 0.25 1 0.125 0.375 1 0.125 0.5 1 0.125 0.625 1 0.125 0.75 1 0.125 0.875 1 0.125 1 1 0.125 0 0 0.25 0.125 0 0.25 0.25 0 0.25 0.375 0 0.25 0.5 0 0.25 0.625 0 0.25 0.75 0 0.25 0.875 0 0.25 1 0 0.25 0 0.125 0.25 0.125 0.125 0.25 0.25 0.125 0.25 0.375 0.125 0.25 0.5 0.125 0.25 0.625 0.125 0.25 0.75 0.125 0.25 0.875 0.125 0.25 1 0.125 0.25 0 0.25 0.25 0.125 0.25 0.25 0.25 0.25 0.25 0.375 0.25 0.25 0.5 0.25 0.25 0.625 0.25 0.25 0.75 0.25 0.25 0.875 0.25 0.25 1 0.25 0.25 0 0.375 0.25 0.125 0.375 0.25 0.25 0.375 0.25 0.375 0.375 0.25 0.5 0.375 0.25 0.625 0.375 0.25 0.75 0.375 0.25 0.875 0.375 0.25 1 0.375 0.25 0 0.5 0.25 0.125 0.5 0.25 0.25 0.5 0.25 0.375 0.5 0.25 0.5 0.5 0.25 0.625 0.5 0.25 0.75 0.5 0.25 0.875 0.5 0.25 1 0.5 0.25 0 0.625 0.25 0.125 0.625 0.25 0.25 0.625 0.25 0.375 0.625 0.25 0.5 0.625 0.25 0.625 0.625 0.25 0.75 0.625 0.25 0.875 0.625 0.25 1 0.625 0.25 0 0.75 0.25 0.125 0.75 0.25 0.25 0.75 0.25 0.375 0.75 0.25 0.5 0.75 0.25 0.625 0.75 0.25 0.75 0.75 0.25 0.875 0.75 0.25 1 0.75 0.25 0 0.875 0.25 0.125 0.875 0.25 0.25 0.875 0.25 0.375 0.875 0.25 0.5 0.875 0.25 0.625 0.875 0.25 0.75 0.875 0.25 0.875 0.875 0.25 1 0.875 0.25 0 1 0.25 0.125 1 0.25 0.25 1 0.25 0.375 1 0.25 0.5 1 0.25 0.625 1 0.25 0.75 1 0.25 0.875 1 0.25 1 1 0.25 0 0 0.375 0.125 0 0.375 0.25 0 0.375 0.375 0 0.375 0.5 0 0.375 0.625 0 0.375 0.75 0 0.375 0.875 0 0.375 1 0 0.375 0 0.125 0.375 0.125 0.125 0.375 0.25 0.125 0.375 0.375 0.125 0.375 0.5 0.125 0.375 0.625 0.125 0.375 0.75 0.125 0.375 0.875 0.125 0.375 1 0.125 0.375 0 0.25 0.375 0.125 0.25 0.375 0.25 0.25 0.375 0.375 0.25 0.375 0.5 0.25 0.375 0.625 0.25 0.375 0.75 0.25 0.375 0.875 0.25 0.375 1 0.25 0.375 0 0.375 0.375 0.125 0.375 0.375 0.25 0.375 0.375 0.375 0.375 0.375 0.5 0.375 0.375 0.625 0.375 0.375 0.75 0.375 0.375 0.875 0.375 0.375 1 0.375 0.375 0 0.5 0.375 0.125 0.5 0.375 0.25 0.5 0.375 0.375 0.5 0.375 0.5 0.5 0.375 0.625 0.5 0.375 0.75 0.5 0.375 0.875 0.5 0.375 1 0.5 0.375 0 0.625 0.375 0.125 0.625 0.375 0.25 0.625 0.375 0.375 0.625 0.375 0.5 0.625 0.375 0.625 0.625 0.375 0.75 0.625 0.375 0.875 0.625 0.375 1 0.625 0.375 0 0.75 0.375 0.125 0.75 0.375 0.25 0.75 0.375 0.375 0.75 0.375 0.5 0.75 0.375 0.625 0.75 0.375 0.75 0.75 0.375 0.875 0.75 0.375 1 0.75 0.375 0 0.875 0.375 0.125 0.875 0.375 0.25 0.875 0.375 0.375 0.875 0.375 0.5 0.875 0.375 0.625 0.875 0.375 0.75 0.875 0.375 0.875 0.875 0.375 1 0.875 0.375 0 1 0.375 0.125 1 0.375 0.25 1 0.375 0.375 1 0.375 0.5 1 0.375 0.625 1 0.375 0.75 1 0.375 0.875 1 0.375 1 1 0.375 0 0 0.5 0.125 0 0.5 0.25 0 0.5 0.375 0 0.5 0.5 0 0.5 0.625 0 0.5 0.75 0 0.5 0.875 0 0.5 1 0 0.5 0 0.125 0.5 0.125 0.125 0.5 0.25 0.125 0.5 0.375 0.125 0.5 0.5 0.125 0.5 0.625 0.125 0.5 0.75 0.125 0.5 0.875 0.125 0.5 1 0.125 0.5 0 0.25 0.5 0.125 0.25 0.5 0.25 0.25 0.5 0.375 0.25 0.5 0.5 0.25 0.5 0.625 0.25 0.5 0.75 0.25 0.5 0.875 0.25 0.5 1 0.25 0.5 0 0.375 0.5 0.125 0.375 0.5 0.25 0.375 0.5 0.375 0.375 0.5 0.5 0.375 0.5 0.625 0.375 0.5 0.75 0.375 0.5 0.875 0.375 0.5 1 0.375 0.5 0 0.5 0.5 0.125 0.5 0.5 0.25 0.5 0.5 0.375 0.5 0.5 0.5 0.5 0.5 0.625 0.5 0.5 0.75 0.5 0.5 0.875 0.5 0.5 1 0.5 0.5 0 0.625 0.5 0.125 0.625 0.5 0.25 0.625 0.5 0.375 0.625 0.5 0.5 0.625 0.5 0.625 0.625 0.5 0.75 0.625 0.5 0.875 0.625 0.5 1 0.625 0.5 0 0.75 0.5 0.125 0.75 0.5 0.25 0.75 0.5 0.375 0.75 0.5 0.5 0.75 0.5 0.625 0.75 0.5 0.75 0.75 0.5 0.875 0.75 0.5 1 0.75 0.5 0 0.875 0.5 0.125 0.875 0.5 0.25 0.875 0.5 0.375 0.875 0.5 0.5 0.875 0.5 0.625 0.875 0.5 0.75 0.875 0.5 0.875 0.875 0.5 1 0.875 0.5 0 1 0.5 0.125 1 0.5 0.25 1 0.5 0.375 1 0.5 0.5 1 0.5 0.625 1 0.5 0.75 1 0.5 0.875 1 0.5 1 1 0.5 0 0 0.625 0.125 0 0.625 0.25 0 0.625 0.375 0 0.625 0.5 0 0.625 0.625 0 0.625 0.75 0 0.625 0.875 0 0.625 1 0 0.625 0 0.125 0.625 0.125 0.125 0.625 0.25 0.125 0.625 0.375 0.125 0.625 0.5 0.125 0.625 0.625 0.125 0.625 0.75 0.125 0.625 0.875 0.125 0.625 1 0.125 0.625 0 0.25 0.625 0.125 0.25 0.625 0.25 0.25 0.625 0.375 0.25 0.625 0.5 0.25 0.625 0.625 0.25 0.625 0.75 0.25 0.625 0.875 0.25 0.625 1 0.25 0.625 0 0.375 0.625 0.125 0.375 0.625 0.25 0.375 0.625 0.375 0.375 0.625 0.5 0.375 0.625 0.625 0.375 0.625 0.75 0.375 0.625 0.875 0.375 0.625 1 0.375 0.625 0 0.5 0.625 0.125 0.5 0.625 0.25 0.5 0.625 0.375 0.5 0.625 0.5 0.5 0.625 0.625 0.5 0.625 0.75 0.5 0.625 0.875 0.5 0.625 1 0.5 0.625 0 0.625 0.625 0.125 0.625 0.625 0.25 0.625 0.625 0.375 0.625 0.625 0.5 0.625 0.625 0.625 0.625 0.625 0.75 0.625 0.625 0.875 0.625 0.625 1 0.625 0.625 0 0.75 0.625 0.125 0.75 0.625 0.25 0.75 0.625 0.375 0.75 0.625 0.5 0.75 0.625 0.625 0.75 0.625 0.75 0.75 0.625 0.875 0.75 0.625 1 0.75 0.625 0 0.875 0.625 0.125 0.875 0.625 0.25 0.875 0.625 0.375 0.875 0.625 0.5 0.875 0.625 0.625 0.875 0.625 0.75 0.875 0.625 0.875 0.875 0.625 1 0.875 0.625 0 1 0.625 0.125 1 0.625 0.25 1 0.625 0.375 1 0.625 0.5 1 0.625 0.625 1 0.625 0.75 1 0.625 0.875 1 0.625 1 1 0.625 0 0 0.75 0.125 0 0.75 0.25 0 0.75 0.375 0 0.75 0.5 0 0.75 0.625 0 0.75 0.75 0 0.75 0.875 0 0.75 1 0 0.75 0 0.125 0.75 0.125 0.125 0.75 0.25 0.125 0.75 0.375 0.125 0.75 0.5 0.125 0.75 0.625 0.125 0.75 0.75 0.125 0.75 0.875 0.125 0.75 1 0.125 0.75 0 0.25 0.75 0.125 0.25 0.75 0.25 0.25 0.75 0.375 0.25 0.75 0.5 0.25 0.75 0.625 0.25 0.75 0.75 0.25 0.75 0.875 0.25 0.75 1 0.25 0.75 0 0.375 0.75 0.125 0.375 0.75 0.25 0.375 0.75 0.375 0.375 0.75 0.5 0.375 0.75 0.625 0.375 0.75 0.75 0.375 0.75 0.875 0.375 0.75 1 0.375 0.75 0 0.5 0.75 0.125 0.5 0.75 0.25 0.5 0.75 0.375 0.5 0.75 0.5 0.5 0.75 0.625 0.5 0.75 0.75 0.5 0.75 0.875 0.5 0.75 1 0.5 0.75 0 0.625 0.75 0.125 0.625 0.75 0.25 0.625 0.75 0.375 0.625 0.75 0.5 0.625 0.75 0.625 0.625 0.75 0.75 0.625 0.75 0.875 0.625 0.75 1 0.625 0.75 0 0.75 0.75 0.125 0.75 0.75 0.25 0.75 0.75 0.375 0.75 0.75 0.5 0.75 0.75 0.625 0.75 0.75 0.75 0.75 0.75 0.875 0.75 0.75 1 0.75 0.75 0 0.875 0.75 0.125 0.875 0.75 0.25 0.875 0.75 0.375 0.875 0.75 0.5 0.875 0.75 0.625 0.875 0.75 0.75 0.875 0.75 0.875 0.875 0.75 1 0.875 0.75 0 1 0.75 0.125 1 0.75 0.25 1 0.75 0.375 1 0.75 0.5 1 0.75 0.625 1 0.75 0.75 1 0.75 0.875 1 0.75 1 1 0.75 0 0 0.875 0.125 0 0.875 0.25 0 0.875 0.375 0 0.875 0.5 0 0.875 0.625 0 0.875 0.75 0 0.875 0.875 0 0.875 1 0 0.875 0 0.125 0.875 0.125 0.125 0.875 0.25 0.125 0.875 0.375 0.125 0.875 0.5 0.125 0.875 0.625 0.125 0.875 0.75 0.125 0.875 0.875 0.125 0.875 1 0.125 0.875 0 0.25 0.875 0.125 0.25 0.875 0.25 0.25 0.875 0.375 0.25 0.875 0.5 0.25 0.875 0.625 0.25 0.875 0.75 0.25 0.875 0.875 0.25 0.875 1 0.25 0.875 0 0.375 0.875 0.125 0.375 0.875 0.25 0.375 0.875 0.375 0.375 0.875 0.5 0.375 0.875 0.625 0.375 0.875 0.75 0.375 0.875 0.875 0.375 0.875 1 0.375 0.875 0 0.5 0.875 0.125 0.5 0.875 0.25 0.5 0.875 0.375 0.5 0.875 0.5 0.5 0.875 0.625 0.5 0.875 0.75 0.5 0.875 0.875 0.5 0.875 1 0.5 0.875 0 0.625 0.875 0.125 0.625 0.875 0.25 0.625 0.875 0.375 0.625 0.875 0.5 0.625 0.875 0.625 0.625 0.875 0.75 0.625 0.875 0.875 0.625 0.875 1 0.625 0.875 0 0.75 0.875 0.125 0.75 0.875 0.25 0.75 0.875 0.375 0.75 0.875 0.5 0.75 0.875 0.625 0.75 0.875 0.75 0.75 0.875 0.875 0.75 0.875 1 0.75 0.875 0 0.875 0.875 0.125 0.875 0.875 0.25 0.875 0.875 0.375 0.875 0.875 0.5 0.875 0.875 0.625 0.875 0.875 0.75 0.875 0.875 0.875 0.875 0.875 1 0.875 0.875 0 1 0.875 0.125 1 0.875 0.25 1 0.875 0.375 1 0.875 0.5 1 0.875 0.625 1 0.875 0.75 1 0.875 0.875 1 0.875 1 1 0.875 0 0 1 0.125 0 1 0.25 0 1 0.375 0 1 0.5 0 1 0.625 0 1 0.75 0 1 0.875 0 1 1 0 1 0 0.125 1 0.125 0.125 1 0.25 0.125 1 0.375 0.125 1 0.5 0.125 1 0.625 0.125 1 0.75 0.125 1 0.875 0.125 1 1 0.125 1 0 0.25 1 0.125 0.25 1 0.25 0.25 1 0.375 0.25 1 0.5 0.25 1 0.625 0.25 1 0.75 0.25 1 0.875 0.25 1 1 0.25 1 0 0.375 1 0.125 0.375 1 0.25 0.375 1 0.375 0.375 1 0.5 0.375 1 0.625 0.375 1 0.75 0.375 1 0.875 0.375 1 1 0.375 1 0 0.5 1 0.125 0.5 1 0.25 0.5 1 0.375 0.5 1 0.5 0.5 1 0.625 0.5 1 0.75 0.5 1 0.875 0.5 1 1 0.5 1 0 0.625 1 0.125 0.625 1 0.25 0.625 1 0.375 0.625 1 0.5 0.625 1 0.625 0.625 1 0.75 0.625 1 0.875 0.625 1 1 0.625 1 0 0.75 1 0.125 0.75 1 0.25 0.75 1 0.375 0.75 1 0.5 0.75 1 0.625 0.75 1 0.75 0.75 1 0.875 0.75 1 1 0.75 1 0 0.875 1 0.125 0.875 1 0.25 0.875 1 0.375 0.875 1 0.5 0.875 1 0.625 0.875 1 0.75 0.875 1 0.875 0.875 1 1 0.875 1 0 1 1 0.125 1 1 0.25 1 1 0.375 1 1 0.5 1 1 0.625 1 1 0.75 1 1 0.875 1 1 1 1 1         </DataArray>
      </Points>
    </Piece>
  </StructuredGrid>
</VTKFile>
