<?xml version="1.0"?>
<VTKFile type="StructuredGrid" version="0.1" byte_order="LittleEndian">
  <StructuredGrid WholeExtent="0 8 0 8 0 8">
    <Piece Extent="0 8 0 8 0 8">
      <PointData>
      </PointData>
      <CellData>
        <DataArray Name="vy" NumberOfComponents="1" type="Float32" format="ascii">
0.89552053156411504098 0.97469502507918337475 0.95032347516083448546 0.94814190291895283913 0.94806607649186902531 0.9503062547555000128 0.9746902988078822716 0.89551535137722249047 0.7497600828250641225 0.93218395090310157691 0.88490485671883511998 0.87363090264515164129 0.87346417139276122388 0.88485721814583939704 0.93218020623421771198 0.74975287539960200345 0.57014724925325721561 0.83538588705212124541 0.80725798458209840902 0.78480010212844875106 0.78474881566871657057 0.80723314895046283102 0.83537412560259294292 0.57013613776147820111 0.43969221130858643365 0.73834179667470789532 0.74298009613487348002 0.71852052596872739709 0.71839528180834322235 0.74294289622417208907 0.7383213159103055867 0.43969033297137988248 0.37027386914699828013 0.66647024764840934186 0.69828260230708616429 0.68034034476399418701 0.68023014157556871417 0.69824928644976058667 0.66646876170777424875 0.37027037385764383082 0.33044162226497830748 0.61616551991947587918 0.66731421956416547836 0.65868123429625402565 0.65875258021324012425 0.66734165256519084597 0.61616665558877892206 0.33043711397889147241 0.30533532338594038258 0.5812990766686884081 0.6445688659527979425 0.64399175273107822637 0.64414115528970516955 0.64461913962936068234 0.58129604888245678396 0.30532801171394496897 0.30097511525728126713 0.57299799271778251164 0.63595672633833788545 0.64075874160038770455 0.64077968909371874062 0.6359640457633362054 0.5729901278302359513 0.30096958247268501552 0.97469832063687578128 1.0754466637269954887 1.0414518241277250787 1.0404191607277408771 1.0405009012648187561 1.0414718524852855097 1.0754602127497503439 0.97469679653637386618 0.93219453850040923104 1.2004172547739055954 1.1287218949202388885 1.1172434402196291803 1.1173481136356739896 1.1287758179177929119 1.2004278302846649318 0.93217917686650386688 0.83538765895998468025 1.2661866352051207585 1.2114464735614418611 1.1823228198038586712 1.1823660532501845122 1.2114672451646582019 1.2661900210996226424 0.83537969878732643014 0.73833960110034013713 1.2787775867604680435 1.269027896956560264 1.228994689642934901 1.2290304492391235236 1.269035648836099428 1.2787876498116312884 0.73832935690861833944 0.66646739561144874298 1.2616489735760894053 1.2998439786980831023 1.2594308589562956957 1.2594680377536673355 1.2998668362210310523 1.261635648005854371 0.66647365381743828294 0.61616356770499569606 1.2319150966939911296 1.3119836254480436999 1.2787047510030815634 1.2787521742766674304 1.31196038517178315 1.2319211434335932687 0.61617309787770069285 0.58130156709319835695 1.1973965444291687632 1.3095211553936532134 1.2866469539041642811 1.2867138048104458381 1.3095100641762302818 1.1974189878167988965 0.58129615611632257099 0.5730026015260283323 1.1769299572145872634 1.3083417059719548714 1.2994558858128628653 1.2993576653126428511 1.3082678674911849548 1.1769220353266018897 0.57299187863448974856 0.95033091796256963235 1.0414491085595831699 1.0109670504667145341 1.0095066078550516409 1.0094970023526197433 1.0109683446759833991 1.0414659934608425651 0.95030620308238678007 0.88487927047744918685 1.1287501352161715129 1.0631530338975803129 1.0511546761707821762 1.0511603197911050245 1.0631424122360670914 1.1287360530468710795 0.88489442946826402103 0.80725856598073963966 1.2114587334078612546 1.1601777455602810818 1.1314445457648063531 1.1314437420024225922 1.16019214258294312 1.2114656366316520764 0.80724082375787986621 0.74297736497334287975 1.2690249565001647802 1.2567115134874986548 1.2173896587945078895 1.2173681765670416599 1.2567463711626227774 1.2690391639008156144 0.742956733112686174 0.69827391107190206476 1.2998474792593093241 1.33057071516181602 1.2891852491284236937 1.2892134102571675136 1.330545126748203355 1.2998598872102420376 0.6982697216535028728 0.66731124874133695979 1.3119784962208254075 1.3824375509029276365 1.3457066298311681773 1.3456582645327177516 1.3824207894946523023 1.3119640552205744655 0.66735281592119133354 0.64457461265412852036 1.3095253296914686203 1.4128159075125135136 1.3838566854062219758 1.3837389554517747214 1.4128252045866225295 1.3094869720587825057 0.6446377991104379479 0.6359661929998180474 1.3083365454622688517 1.4373754102975828673 1.4204095863104528874 1.4204065487935482182 1.4374129138743609868 1.3082806905868769043 0.63596377690813588046 0.9481550003812694305 1.0404128761257054325 1.0095061051741951452 1.0080734321238080664 1.0080933897019208612 1.0095006509958699414 1.0404575724901601319 0.94809468001994889885 0.87350323908103277848 1.1173211725460931998 1.0511425309213580093 1.0392618305259178069 1.0392361396791460759 1.0511784341019683175 1.1172582625271496592 0.87361012593079401256 0.78478084286340976661 1.1823351393122882858 1.1314501259128986188 1.1028207453551710504 1.1028184653911135005 1.1314458332651116113 1.1823383579641790764 0.7847661606434988002 0.71849365904765805091 1.2290022540627458802 1.2173830972584012144 1.1786767577510794958 1.1787129743368027768 1.2173701000525085636 1.2290346067857522705 0.71842203242647728612 0.68031763276335566193 1.2594409863174316211 1.289175398463828337 1.2496149435782197834 1.2495837574186012819 1.2891959650732913722 1.2594703935726565547 0.68027335764842367105 0.65869709183883695669 1.2787248975506761983 1.3456702152989810095 1.3113476484621773288 1.3113145906082950276 1.3456743907274419936 1.2787234932254696318 0.65879644555517447024 0.64401240781121760204 1.2866435237033990724 1.3838477207542398961 1.3570737714241378757 1.3571654131185626468 1.3837821547686310897 1.28667512947170537 0.64423256166918885235 0.6407348127410541494 1.2994543873558810354 1.4203961134695730628 1.4046135681287101882 1.4046606668935970319 1.4204825933680811367 1.2992818811976869497 0.6408541937590647164 0.94805738784646509387 1.0405031303256706554 1.0094972730064197819 1.0080911935466345675 1.0080743707984505253 1.0095024259534446376 1.0404562258690366328 0.94811788572252342355 0.87359999159890355802 1.1172632139106557503 1.0511702607709767499 1.0392314146970107469 1.0392626478508566468 1.0511283835734062109 1.1173302269794538333 0.87348705982340180132 0.78477663904407723994 1.182344406684725957 1.1314363432311811408 1.1028084339302774985 1.1028145652324436998 1.131438173641339251 1.1823496928416972196 0.78478343785901516494 0.71842035938729609246 1.2290201358701264844 1.2173737973215463803 1.1787065166927268578 1.1786726982321948931 1.2173859399259863157 1.2289763719866775293 0.71849995545067901759 0.6802480820325913502 1.259449922599713112 1.2892201209761324776 1.2496017195165796121 1.2496107926670243504 1.289200608612234511 1.259418269517595057 0.68029904222117820733 0.65873945582342752214 1.2787205650100699206 1.3456856356946484965 1.311300763704279948 1.3113407818519355885 1.3456605537702543973 1.2787309825435240196 0.65863662475217943371 0.64411632676326890934 1.2867338629382385484 1.3837249525606798439 1.3571185492096533576 1.3570469294246021441 1.3837973111659389591 1.2866890752015787136 0.64388280905483097349 0.64078197399730385531 1.2993610573887710569 1.4204293119257767053 1.4046685223829689093 1.4046108169239905905 1.4203401169988050246 1.2995031295689762896 0.64065632976841258017 0.95030541320907713221 1.041466360795895163 1.0109673871045108395 1.0094975817419122865 1.0095052798522123894 1.0109694091273213612 1.041451859577036787 0.95032365323455236794 0.8848899961133631642 1.1287429364756833561 1.0631323711147460109 1.0511698744610935563 1.0511348013421144554 1.0631395073952616404 1.1287577072362862118 0.88487305464874643768 0.80724080833959044323 1.2114529171888219761 1.1601736278090217791 1.131441600001706238 1.1314406512210399836 1.1601838268179667235 1.2114337514009925201 0.80726199092832318094 0.74294673889046713988 1.2690361899627580211 1.2567346025271750598 1.2173555694326025911 1.2173995426678496656 1.2567069995653183945 1.2690374431245559084 0.74296531429553569481 0.6982545948217142584 1.2998471999779883657 1.330557201240671894 1.2892039234885273036 1.2891894648101227538 1.3305569050774590512 1.299854457923540707 0.69826443213900779572 0.66734679047798206586 1.3119635309730390826 1.3823976486463656066 1.3456468577695113176 1.345679056583489297 1.3824423305051485311 1.311965511315280164 0.6673082767591961284 0.64461874591298429227 1.3095036849809318369 1.4127991948349141182 1.3836963996517126496 1.3838602358168521356 1.4128067262602290732 1.3095396751286783044 0.6445491794208081382 0.63595591997704159493 1.3082949310713432034 1.4374154637721343608 1.4203658463654094124 1.4204659691103096453 1.4373736227041751246 1.3083243882400374947 0.63594313968431859241 0.97469005784242723767 1.0754451434497456219 1.0414504178962600278 1.0404348141079569068 1.0404748634289113784 1.0414592565032054772 1.0754609953085614293 0.97469121199070851702 0.93217797554335968258 1.2004123475253321018 1.1287290397228082472 1.1172469011346861656 1.11733447316340051 1.1287600724130415486 1.2004050596234010495 0.93219405142172684364 0.8353772675316981644 1.2661885297766564129 1.2114577393898948721 1.1823198769193077329 1.1823588960899562572 1.2114395662502153161 1.2662008386582277453 0.8353857365162760118 0.73832876383020729083 1.2787750968962876552 1.2690364512606273628 1.2290093140546951567 1.2289989539607519831 1.2690377684450173668 1.278769970564993308 0.73834798160180015181 0.66646928458341803125 1.2616411044589810331 1.299854319123819657 1.2594463169659984025 1.259434398681484657 1.2998438251515367359 1.2616383765798560024 0.66647561007206024275 0.61616491516571025855 1.2319172588630031839 1.3119733015919186059 1.278769001807111394 1.2786740471950770459 1.3119541399162866213 1.2319203130907796506 0.61616356018894169466 0.58129546438054624513 1.197408849845939427 1.3095352040785130932 1.2867769571157237074 1.2866036593178520331 1.3094891650888664802 1.1974001316139744056 0.58130088029374915592 0.57298912756671316338 1.1769295313502967648 1.3082965816355074384 1.2994384751696521629 1.2993469161185244864 1.3083302748394065596 1.1769158268294754865 0.57299341824912020105 0.89551584638336567679 0.97470395293428668815 0.95032202743253957333 0.94812186395063025035 0.94809508915536366835 0.95031442808030208713 0.97468709309549173003 0.89552741042879180355 0.74976073159539380342 0.93219419625064270374 0.88490821787077067473 0.87362423425918911413 0.8734811414633705251 0.88486648349090790688 0.93218738133433842741 0.7497667804067823516 0.57014619533750554581 0.83538863079914593701 0.80726299968464976242 0.78479376603386141742 0.78476442281534197765 0.80724806580851604654 0.83538172433592750021 0.57015802393515591096 0.43969218108643060017 0.73834068230349370054 0.7429722567700489666 0.71848931172538854639 0.71843093912748312579 0.74295085453210418791 0.73834189961761587107 0.43970068402507711536 0.37027135210963268985 0.66647170891903040335 0.69826743391939005701 0.68029991463762640169 0.68026781349944165367 0.69826331198302393766 0.66647520769863277668 0.37027698786260937469 0.33044003016306161546 0.6161652222842289861 0.66732833671814262289 0.65865743890787020742 0.65877833285711884237 0.667334950076002964 0.61616772140266240498 0.33044366998184948603 0.30533051504911151719 0.58129775098928881949 0.64458660509426146668 0.64397561283716608926 0.6441363446734759135 0.64460575436816147654 0.58130115016478756118 0.30533446409061371085 0.30097309117248960408 0.57299106242964192859 0.63595957184339380053 0.6407807899226927173 0.64070849430665333113 0.63594855923189053115 0.57299769089609531303 0.30097686363136449961 
        </DataArray>
      </CellData>
      <Points>
        <DataArray Name="m" NumberOfComponents="3" type="Float32" format="ascii">
0 0 0 0.125 0 0 0.25 0 0 0.375 0 0 0.5 0 0 0.625 0 0 0.75 0 0 0.875 0 0 1 0 0 0 0.125 0 0.125 0.125 0 0.25 0.125 0 0.375 0.125 0 0.5 0.125 0 0.625 0.125 0 0.75 0.125 0 0.875 0.125 0 1 0.125 0 0 0.25 0 0.125 0.25 0 0.25 0.25 0 0.375 0.25 0 0.5 0.25 0 0.625 0.25 0 0.75 0.25 0 0.875 0.25 0 1 0.25 0 0 0.375 0 0.125 0.375 0 0.25 0.375 0 0.375 0.375 0 0.5 0.375 0 0.625 0.375 0 0.75 0.375 0 0.875 0.375 0 1 0.375 0 0 0.5 0 0.125 0.5 0 0.25 0.5 0 0.375 0.5 0 0.5 0.5 0 0.625 0.5 0 0.75 0.5 0 0.875 0.5 0 1 0.5 0 0 0.625 0 0.125 0.625 0 0.25 0.625 0 0.375 0.625 0 0.5 0.625 0 0.625 0.625 0 0.75 0.625 0 0.875 0.625 0 1 0.625 0 0 0.75 0 0.125 0.75 0 0.25 0.75 0 0.375 0.75 0 0.5 0.75 0 0.625 0.75 0 0.75 0.75 0 0.875 0.75 0 1 0.75 0 0 0.875 0 0.125 0.875 0 0.25 0.875 0 0.375 0.875 0 0.5 0.875 0 0.625 0.875 0 0.75 0.875 0 0.875 0.875 0 1 0.875 0 0 1 0 0.125 1 0 0.25 1 0 0.375 1 0 0.5 1 0 0.625 1 0 0.75 1 0 0.875 1 0 1 1 0 0 0 0.125 0.125 0 0.125 0.25 0 0.125 0.375 0 0.125 0.5 0 0.125 0.625 0 0.125 0.75 0 0.125 0.875 0 0.125 1 0 0.125 0 0.125 0.125 0.125 0.125 0.125 0.25 0.125 0.125 0.375 0.125 0.125 0.5 0.125 0.125 0.625 0.125 0.125 0.75 0.125 0.125 0.875 0.125 0.125 1 0.125 0.125 0 0.25 0.125 0.125 0.25 0.125 0.25 0.25 0.125 0.375 0.25 0.125 0.5 0.25 0.125 0.625 0.25 0.125 0.75 0.25 0.125 0.875 0.25 0.125 1 0.25 0.125 0 0.375 0.125 0.125 0.375 0.125 0.25 0.375 0.125 0.375 0.375 0.125 0.5 0.375 0.125 0.625 0.375 0.125 0.75 0.375 0.125 0.875 0.375 0.125 1 0.375 0.125 0 0.5 0.125 0.125 0.5 0.125 0.25 0.5 0.125 0.375 0.5 0.125 0.5 0.5 0.125 0.625 0.5 0.125 0.75 0.5 0.125 0.875 0.5 0.125 1 0.5 0.125 0 0.625 0.125 0.125 0.625 0.125 0.25 0.625 0.125 0.375 0.625 0.125 0.5 0.625 0.125 0.625 0.625 0.125 0.75 0.625 0.125 0.875 0.625 0.125 1 0.625 0.125 0 0.75 0.125 0.125 0.75 0.125 0.25 0.75 0.125 0.375 0.75 0.125 0.5 0.75 0.125 0.625 0.75 0.125 0.75 0.75 0.125 0.875 0.75 0.125 1 0.75 0.125 0 0.875 0.125 0.125 0.875 0.125 0.25 0.875 0.125 0.375 0.875 0.125 0.5 0.875 0.125 0.625 0.875 0.125 0.75 0.875 0.125 0.875 0.875 0.125 1 0.875 0.125 0 1 0.125 0.125 1 0.125 0.25 1 0.125 0.375 1 0.125 0.5 1 0.125 0.625 1 0.125 0.75 1 0.125 0.875 1 0.125 1 1 0.125 0 0 0.25 0.125 0 0.25 0.25 0 0.25 0.375 0 0.25 0.5 0 0.25 0.625 0 0.25 0.75 0 0.25 0.875 0 0.25 1 0 0.25 0 0.125 0.25 0.125 0.125 0.25 0.25 0.125 0.25 0.375 0.125 0.25 0.5 0.125 0.25 0.625 0.125 0.25 0.75 0.125 0.25 0.875 0.125 0.25 1 0.125 0.25 0 0.25 0.25 0.125 0.25 0.25 0.25 0.25 0.25 0.375 0.25 0.25 0.5 0.25 0.25 0.625 0.25 0.25 0.75 0.25 0.25 0.875 0.25 0.25 1 0.25 0.25 0 0.375 0.25 0.125 0.375 0.25 0.25 0.375 0.25 0.375 0.375 0.25 0.5 0.375 0.25 0.625 0.375 0.25 0.75 0.375 0.25 0.875 0.375 0.25 1 0.375 0.25 0 0.5 0.25 0.125 0.5 0.25 0.25 0.5 0.25 0.375 0.5 0.25 0.5 0.5 0.25 0.625 0.5 0.25 0.75 0.5 0.25 0.875 0.5 0.25 1 0.5 0.25 0 0.625 0.25 0.125 0.625 0.25 0.25 0.625 0.25 0.375 0.625 0.25 0.5 0.625 0.25 0.625 0.625 0.25 0.75 0.625 0.25 0.875 0.625 0.25 1 0.625 0.25 0 0.75 0.25 0.125 0.75 0.25 0.25 0.75 0.25 0.375 0.75 0.25 0.5 0.75 0.25 0.625 0.75 0.25 0.75 0.75 0.25 0.875 0.75 0.25 1 0.75 0.25 0 0.875 0.25 0.125 0.875 0.25 0.25 0.875 0.25 0.375 0.875 0.25 0.5 0.875 0.25 0.625 0.875 0.25 0.75 0.875 0.25 0.875 0.875 0.25 1 0.875 0.25 0 1 0.25 0.125 1 0.25 0.25 1 0.25 0.375 1 0.25 0.5 1 0.25 0.625 1 0.25 0.75 1 0.25 0.875 1 0.25 1 1 0.25 0 0 0.375 0.125 0 0.375 0.25 0 0.375 0.375 0 0.375 0.5 0 0.375 0.625 0 0.375 0.75 0 0.375 0.875 0 0.375 1 0 0.375 0 0.125 0.375 0.125 0.125 0.375 0.25 0.125 0.375 0.375 0.125 0.375 0.5 0.125 0.375 0.625 0.125 0.375 0.75 0.125 0.375 0.875 0.125 0.375 1 0.125 0.375 0 0.25 0.375 0.125 0.25 0.375 0.25 0.25 0.375 0.375 0.25 0.375 0.5 0.25 0.375 0.625 0.25 0.375 0.75 0.25 0.375 0.875 0.25 0.375 1 0.25 0.375 0 0.375 0.375 0.125 0.375 0.375 0.25 0.375 0.375 0.375 0.375 0.375 0.5 0.375 0.375 0.625 0.375 0.375 0.75 0.375 0.375 0.875 0.375 0.375 1 0.375 0.375 0 0.5 0.375 0.125 0.5 0.375 0.25 0.5 0.375 0.375 0.5 0.375 0.5 0.5 0.375 0.625 0.5 0.375 0.75 0.5 0.375 0.875 0.5 0.375 1 0.5 0.375 0 0.625 0.375 0.125 0.625 0.375 0.25 0.625 0.375 0.375 0.625 0.375 0.5 0.625 0.375 0.625 0.625 0.375 0.75 0.625 0.375 0.875 0.625 0.375 1 0.625 0.375 0 0.75 0.375 0.125 0.75 0.375 0.25 0.75 0.375 0.375 0.75 0.375 0.5 0.75 0.375 0.625 0.75 0.375 0.75 0.75 0.375 0.875 0.75 0.375 1 0.75 0.375 0 0.875 0.375 0.125 0.875 0.375 0.25 0.875 0.375 0.375 0.875 0.375 0.5 0.875 0.375 0.625 0.875 0.375 0.75 0.875 0.375 0.875 0.875 0.375 1 0.875 0.375 0 1 0.375 0.125 1 0.375 0.25 1 0.375 0.375 1 0.375 0.5 1 0.375 0.625 1 0.375 0.75 1 0.375 0.875 1 0.375 1 1 0.375 0 0 0.5 0.125 0 0.5 0.25 0 0.5 0.375 0 0.5 0.5 0 0.5 0.625 0 0.5 0.75 0 0.5 0.875 0 0.5 1 0 0.5 0 0.125 0.5 0.125 0.125 0.5 0.25 0.125 0.5 0.375 0.125 0.5 0.5 0.125 0.5 0.625 0.125 0.5 0.75 0.125 0.5 0.875 0.125 0.5 1 0.125 0.5 0 0.25 0.5 0.125 0.25 0.5 0.25 0.25 0.5 0.375 0.25 0.5 0.5 0.25 0.5 0.625 0.25 0.5 0.75 0.25 0.5 0.875 0.25 0.5 1 0.25 0.5 0 0.375 0.5 0.125 0.375 0.5 0.25 0.375 0.5 0.375 0.375 0.5 0.5 0.375 0.5 0.625 0.375 0.5 0.75 0.375 0.5 0.875 0.375 0.5 1 0.375 0.5 0 0.5 0.5 0.125 0.5 0.5 0.25 0.5 0.5 0.375 0.5 0.5 0.5 0.5 0.5 0.625 0.5 0.5 0.75 0.5 0.5 0.875 0.5 0.5 1 0.5 0.5 0 0.625 0.5 0.125 0.625 0.5 0.25 0.625 0.5 0.375 0.625 0.5 0.5 0.625 0.5 0.625 0.625 0.5 0.75 0.625 0.5 0.875 0.625 0.5 1 0.625 0.5 0 0.75 0.5 0.125 0.75 0.5 0.25 0.75 0.5 0.375 0.75 0.5 0.5 0.75 0.5 0.625 0.75 0.5 0.75 0.75 0.5 0.875 0.75 0.5 1 0.75 0.5 0 0.875 0.5 0.125 0.875 0.5 0.25 0.875 0.5 0.375 0.875 0.5 0.5 0.875 0.5 0.625 0.875 0.5 0.75 0.875 0.5 0.875 0.875 0.5 1 0.875 0.5 0 1 0.5 0.125 1 0.5 0.25 1 0.5 0.375 1 0.5 0.5 1 0.5 0.625 1 0.5 0.75 1 0.5 0.875 1 0.5 1 1 0.5 0 0 0.625 0.125 0 0.625 0.25 0 0.625 0.375 0 0.625 0.5 0 0.625 0.625 0 0.625 0.75 0 0.625 0.875 0 0.625 1 0 0.625 0 0.125 0.625 0.125 0.125 0.625 0.25 0.125 0.625 0.375 0.125 0.625 0.5 0.125 0.625 0.625 0.125 0.625 0.75 0.125 0.625 0.875 0.125 0.625 1 0.125 0.625 0 0.25 0.625 0.125 0.25 0.625 0.25 0.25 0.625 0.375 0.25 0.625 0.5 0.25 0.625 0.625 0.25 0.625 0.75 0.25 0.625 0.875 0.25 0.625 1 0.25 0.625 0 0.375 0.625 0.125 0.375 0.625 0.25 0.375 0.625 0.375 0.375 0.625 0.5 0.375 0.625 0.625 0.375 0.625 0.75 0.375 0.625 0.875 0.375 0.625 1 0.375 0.625 0 0.5 0.625 0.125 0.5 0.625 0.25 0.5 0.625 0.375 0.5 0.625 0.5 0.5 0.625 0.625 0.5 0.625 0.75 0.5 0.625 0.875 0.5 0.625 1 0.5 0.625 0 0.625 0.625 0.125 0.625 0.625 0.25 0.625 0.625 0.375 0.625 0.625 0.5 0.625 0.625 0.625 0.625 0.625 0.75 0.625 0.625 0.875 0.625 0.625 1 0.625 0.625 0 0.75 0.625 0.125 0.75 0.625 0.25 0.75 0.625 0.375 0.75 0.625 0.5 0.75 0.625 0.625 0.75 0.625 0.75 0.75 0.625 0.875 0.75 0.625 1 0.75 0.625 0 0.875 0.625 0.125 0.875 0.625 0.25 0.875 0.625 0.375 0.875 0.625 0.5 0.875 0.625 0.625 0.875 0.625 0.75 0.875 0.625 0.875 0.875 0.625 1 0.875 0.625 0 1 0.625 0.125 1 0.625 0.25 1 0.625 0.375 1 0.625 0.5 1 0.625 0.625 1 0.625 0.75 1 0.625 0.875 1 0.625 1 1 0.625 0 0 0.75 0.125 0 0.75 0.25 0 0.75 0.375 0 0.75 0.5 0 0.75 0.625 0 0.75 0.75 0 0.75 0.875 0 0.75 1 0 0.75 0 0.125 0.75 0.125 0.125 0.75 0.25 0.125 0.75 0.375 0.125 0.75 0.5 0.125 0.75 0.625 0.125 0.75 0.75 0.125 0.75 0.875 0.125 0.75 1 0.125 0.75 0 0.25 0.75 0.125 0.25 0.75 0.25 0.25 0.75 0.375 0.25 0.75 0.5 0.25 0.75 0.625 0.25 0.75 0.75 0.25 0.75 0.875 0.25 0.75 1 0.25 0.75 0 0.375 0.75 0.125 0.375 0.75 0.25 0.375 0.75 0.375 0.375 0.75 0.5 0.375 0.75 0.625 0.375 0.75 0.75 0.375 0.75 0.875 0.375 0.75 1 0.375 0.75 0 0.5 0.75 0.125 0.5 0.75 0.25 0.5 0.75 0.375 0.5 0.75 0.5 0.5 0.75 0.625 0.5 0.75 0.75 0.5 0.75 0.875 0.5 0.75 1 0.5 0.75 0 0.625 0.75 0.125 0.625 0.75 0.25 0.625 0.75 0.375 0.625 0.75 0.5 0.625 0.75 0.625 0.625 0.75 0.75 0.625 0.75 0.875 0.625 0.75 1 0.625 0.75 0 0.75 0.75 0.125 0.75 0.75 0.25 0.75 0.75 0.375 0.75 0.75 0.5 0.75 0.75 0.625 0.75 0.75 0.75 0.75 0.75 0.875 0.75 0.75 1 0.75 0.75 0 0.875 0.75 0.125 0.875 0.75 0.25 0.875 0.75 0.375 0.875 0.75 0.5 0.875 0.75 0.625 0.875 0.75 0.75 0.875 0.75 0.875 0.875 0.75 1 0.875 0.75 0 1 0.75 0.125 1 0.75 0.25 1 0.75 0.375 1 0.75 0.5 1 0.75 0.625 1 0.75 0.75 1 0.75 0.875 1 0.75 1 1 0.75 0 0 0.875 0.125 0 0.875 0.25 0 0.875 0.375 0 0.875 0.5 0 0.875 0.625 0 0.875 0.75 0 0.875 0.875 0 0.875 1 0 0.875 0 0.125 0.875 0.125 0.125 0.875 0.25 0.125 0.875 0.375 0.125 0.875 0.5 0.125 0.875 0.625 0.125 0.875 0.75 0.125 0.875 0.875 0.125 0.875 1 0.125 0.875 0 0.25 0.875 0.125 0.25 0.875 0.25 0.25 0.875 0.375 0.25 0.875 0.5 0.25 0.875 0.625 0.25 0.875 0.75 0.25 0.875 0.875 0.25 0.875 1 0.25 0.875 0 0.375 0.875 0.125 0.375 0.875 0.25 0.375 0.875 0.375 0.375 0.875 0.5 0.375 0.875 0.625 0.375 0.875 0.75 0.375 0.875 0.875 0.375 0.875 1 0.375 0.875 0 0.5 0.875 0.125 0.5 0.875 0.25 0.5 0.875 0.375 0.5 0.875 0.5 0.5 0.875 0.625 0.5 0.875 0.75 0.5 0.875 0.875 0.5 0.875 1 0.5 0.875 0 0.625 0.875 0.125 0.625 0.875 0.25 0.625 0.875 0.375 0.625 0.875 0.5 0.625 0.875 0.625 0.625 0.875 0.75 0.625 0.875 0.875 0.625 0.875 1 0.625 0.875 0 0.75 0.875 0.125 0.75 0.875 0.25 0.75 0.875 0.375 0.75 0.875 0.5 0.75 0.875 0.625 0.75 0.875 0.75 0.75 0.875 0.875 0.75 0.875 1 0.75 0.875 0 0.875 0.875 0.125 0.875 0.875 0.25 0.875 0.875 0.375 0.875 0.875 0.5 0.875 0.875 0.625 0.875 0.875 0.75 0.875 0.875 0.875 0.875 0.875 1 0.875 0.875 0 1 0.875 0.125 1 0.875 0.25 1 0.875 0.375 1 0.875 0.5 1 0.875 0.625 1 0.875 0.75 1 0.875 0.875 1 0.875 1 1 0.875 0 0 1 0.125 0 1 0.25 0 1 0.375 0 1 0.5 0 1 0.625 0 1 0.75 0 1 0.875 0 1 1 0 1 0 0.125 1 0.125 0.125 1 0.25 0.125 1 0.375 0.125 1 0.5 0.125 1 0.625 0.125 1 0.75 0.125 1 0.875 0.125 1 1 0.125 1 0 0.25 1 0.125 0.25 1 0.25 0.25 1 0.375 0.25 1 0.5 0.25 1 0.625 0.25 1 0.75 0.25 1 0.875 0.25 1 1 0.25 1 0 0.375 1 0.125 0.375 1 0.25 0.375 1 0.375 0.375 1 0.5 0.375 1 0.625 0.375 1 0.75 0.375 1 0.875 0.375 1 1 0.375 1 0 0.5 1 0.125 0.5 1 0.25 0.5 1 0.375 0.5 1 0.5 0.5 1 0.625 0.5 1 0.75 0.5 1 0.875 0.5 1 1 0.5 1 0 0.625 1 0.125 0.625 1 0.25 0.625 1 0.375 0.625 1 0.5 0.625 1 0.625 0.625 1 0.75 0.625 1 0.875 0.625 1 1 0.625 1 0 0.75 1 0.125 0.75 1 0.25 0.75 1 0.375 0.75 1 0.5 0.75 1 0.625 0.75 1 0.75 0.75 1 0.875 0.75 1 1 0.75 1 0 0.875 1 0.125 0.875 1 0.25 0.875 1 0.375 0.875 1 0.5 0.875 1 0.625 0.875 1 0.75 0.875 1 0.875 0.875 1 1 0.875 1 0 1 1 0.125 1 1 0.25 1 1 0.375 1 1 0.5 1 1 0.625 1 1 0.75 1 1 0.875 1 1 1 1 1         </DataArray>
      </Points>
    </Piece>
  </StructuredGrid>
</VTKFile>
