<?xml version="1.0"?>
<VTKFile type="StructuredGrid" version="0.1" byte_order="LittleEndian">
  <StructuredGrid WholeExtent="0 8 0 8 0 8">
    <Piece Extent="0 8 0 8 0 8">
      <PointData>
      </PointData>
      <CellData>
        <DataArray Name="vy" NumberOfComponents="1" type="Float32" format="ascii">
0.8955210720684739778 0.97469506225473023786 0.9503284378346374961 0.94816063617889922988 0.94805408124966084049 0.95030621857312946865 0.97469121940039771257 0.89551956449673542071 0.74976247293537179317 0.9321876146887161374 0.8848820839796209814 0.87351360767886288006 0.87359058107176157382 0.88488807455101958777 0.93218505889950198373 0.74975660217629902515 0.57015146275421346722 0.8353891606360298594 0.80725987535184429156 0.78479215214149466995 0.78476113311055706312 0.80724681371170525779 0.8353718788575648091 0.5701452974995225853 0.4396961561005673369 0.73834065386783931384 0.7429751093831283848 0.71847039196137940653 0.71845086092285104229 0.74294579496198687174 0.73833356457415988405 0.4396930322897722454 0.37027202244192386482 0.66647878846119401608 0.69827464157495466868 0.6803206163410689955 0.68025064727110828855 0.69825186478215139907 0.66646773619305221814 0.3702746938052475234 0.3304427213140881392 0.61616749551822569408 0.66732311782233699748 0.65867658284846386518 0.65875834653971698796 0.66734163626990083973 0.61616329358711219299 0.33043994130688436606 0.30533535483120732845 0.58130561224547938615 0.64457390199924413654 0.64397150414908488347 0.64415330968875217366 0.64461542098089896768 0.581292142641291254 0.30532910414392455678 0.30097531455695053504 0.57300571797137511698 0.63594635274360700183 0.64067895837847388396 0.64083245304468317016 0.63596812144583181325 0.57298316756301370667 0.30097447331909266133 0.97469710759877425943 1.0754474924823429483 1.041451869279344411 1.0404024093363759551 1.0405106212178805158 1.0414614809333040402 1.0754646903391695822 0.97469069867198121493 0.93219185183952968377 1.2004131992954263364 1.1287458407356325552 1.117313293519115236 1.1172717315045435083 1.12874847606132378 1.2004139680094298992 0.93218648903236045467 0.83538954421124345107 1.2661848083963673783 1.2114465868604362697 1.1823396278379527669 1.1823491161750883105 1.2114505425348265355 1.2661994219267505013 0.83537482245745253717 0.73833587062382088906 1.2787851128860441285 1.2690303214824958378 1.2290003466989090075 1.2290105103148700749 1.2690420122114194346 1.2787677144501834459 0.7383382899957239287 0.66646819625213582494 1.2616362155033788994 1.299864728758406196 1.2594347304316564351 1.2594474117481837538 1.299851669830873524 1.2616332724078165306 0.66648109588685877647 0.61615827289916991205 1.2319229468769992142 1.311965895263588866 1.2787225317578583272 1.2787365069927851824 1.3119504718481467265 1.23192541409705969 0.61617473763080488069 0.58129416821103452317 1.1974120906365528505 1.3095303771930613124 1.2866352105959208973 1.2867300804355570332 1.3095071816345005278 1.1974035016555075739 0.58130516916892382984 0.57299432082055057336 1.1769193793200656284 1.3083571191933243139 1.2994149700602783959 1.2993859172651041067 1.3082690357487383181 1.1769256930644471648 0.57299672818532476626 0.95032804054624908652 1.0414538878950729828 1.0109585074223532697 1.0095119308572975125 1.0094912648456519921 1.0109789775719184579 1.04146057865547359 0.9503123175982306492 0.88488513319291028925 1.1287460839009690883 1.0631430433336324093 1.0511442451566730405 1.051166701785766211 1.0631291669237961095 1.1287821755674152246 0.88485704832023281963 0.80726201406204944888 1.2114535694567591939 1.1601745643455814161 1.1314356463926336094 1.1314427400319311268 1.1601945003289997338 1.2114467114136038273 0.80724444818068563645 0.74297963200811911744 1.2690264924493805943 1.256712312309981483 1.2173844364055184109 1.2173749857089233295 1.2567279639579553852 1.2690445278107904681 0.74294652629008650635 0.69826895965979218772 1.2998537202489968134 1.3305566207712531401 1.2891839979517953907 1.2892161305484319822 1.3305376696793151936 1.2998659006492248036 0.69825770738579451269 0.66732357761036920074 1.3119616935841595939 1.382450844238176213 1.3456772860119010637 1.3456518545237632356 1.3824042022349378733 1.3119693350012018307 0.6673418953751618643 0.64458605100983290548 1.3095017067366478969 1.4128137631080770475 1.3838587753391780044 1.3837198335793081672 1.4127866124207428822 1.3095362491346087541 0.64460891647464169107 0.6359537392718264126 1.3083370309293225198 1.4373593381781981648 1.4204339571721724678 1.4203850856860238405 1.4374153215543812312 1.3082986127958384781 0.6359528781556862409 0.94815207572120041579 1.0404164754962677009 1.0095065339601032584 1.0080746131075437599 1.0080932466400667202 1.0094911514616404791 1.0405037895007420712 0.9480668560325884453 0.87349350800357339342 1.1173399447384915195 1.0511311391326563225 1.0392471614889107201 1.0392477354822269309 1.0511604756457122445 1.1173296911100729645 0.87347278127816485593 0.78479855258454522815 1.182346992652191453 1.1314333599131685126 1.1028303262303988941 1.1028034723256452398 1.1314321890081513455 1.1823715191596404495 0.78475104556772889985 0.71851893036396130565 1.2290015274938368428 1.2173842126437568467 1.1786672502867361345 1.1787090154252815033 1.2173772494582915105 1.229002895627288483 0.71841193270352243783 0.68032029056556919677 1.2594323098660022975 1.2892036045517185627 1.2496107037315757893 1.2495877224713500819 1.2891974854192806976 1.2594553733657329886 0.68024152452432606886 0.65876397500284811226 1.2786975038432264462 1.3457008567273609501 1.3113464221654351771 1.3113179806383883363 1.3456197492355148615 1.2787645691795404002 0.65867329591261181143 0.64404536524235778128 1.2867079424033760482 1.3837720267203161839 1.3570896568087511547 1.3571156758976614665 1.3837519115312248985 1.2867132623825194848 0.64407543264903688307 0.64069763520803002521 1.2995220046407500725 1.4203294325523359021 1.4046220460431417809 1.4046515421371901233 1.4204584658010657172 1.2993422639380316497 0.64075699561384713565 0.94805884812951690677 1.0404972151843829842 1.0095010317479653494 1.0080872408732299839 1.008075501581020772 1.0095087304945775664 1.0404134144721495225 0.94814558670417870001 0.87360090066139217679 1.1172567474569148338 1.0511808486165663545 1.0392510324471324612 1.0392458570204701207 1.0511533595028972332 1.1172440980361282303 0.87363568351545473067 0.78475084652007442987 1.1823415590100418981 1.1314641645098164613 1.1028056375404917677 1.1028307148949192396 1.1314376460264461421 1.1823112976016476594 0.78480706434085634182 0.71839562191519878986 1.2290231894105134725 1.2173825328197598328 1.1787226217058639488 1.1786682519216424847 1.217374722853912683 1.2290019690674742758 0.71851006375139814253 0.68024695096550180651 1.2594684227312133995 1.2892072690224685161 1.2495980501588297429 1.2496145679179104793 1.2891859967179890578 1.2594228301307586193 0.68032862459476550754 0.65868198869369809501 1.2787637020128768128 1.3456589031164103432 1.311314065951447505 1.3113337457045213252 1.3457062401211561387 1.2786787870069533657 0.65875295149843726694 0.64410038194833807434 1.2866688958397474174 1.3838076038866664597 1.3571255892747864369 1.3570748133034546967 1.383822584183125759 1.2866481699596123978 0.64402598068381977647 0.64084704885691790022 1.2993039080032100507 1.4204811399421617413 1.4046286237608058833 1.4046527605628646995 1.4203734488633807942 1.2994292250561294555 0.64072918699417635846 0.95030127312065137968 1.0414682403781680975 1.0109753772925085258 1.0094984032591083345 1.0095058301651833599 1.0109616165184180936 1.0414465318994219345 0.95032635241178198271 0.88487850021479841356 1.128756162126164142 1.0631439374900000239 1.0511778369451640902 1.0511370361667033979 1.0631443620713925124 1.128714030582002037 0.8849117545626066228 0.80723184919502177781 1.2114637206471809971 1.1601983015122865339 1.1314570396003369446 1.1314319310233975635 1.1601725507061484421 1.2114434696636571243 0.80726556588830766792 0.74293595066362383417 1.269047795645513288 1.2567508596990704106 1.2173775288066930322 1.2173817630060375095 1.2567071234403850433 1.2690244757502548989 0.74298191616967224071 0.69825664377904628211 1.2998572250536599704 1.3305737181515904233 1.2892197224974297765 1.2891742804302295244 1.330555621351564799 1.2998368425220383493 0.69827702505582200931 0.66732850430099333039 1.3119699944981606521 1.3824167474683095591 1.3456869000740354636 1.3456691746183775393 1.3824285155973154993 1.3119673569275240865 0.66732272133253178747 0.64460332150302268595 1.3095213144648443215 1.4128191416839674943 1.3837368971565406905 1.3838382143438101579 1.4128247786476395564 1.3094994097134426969 0.64457320555213903912 0.63596617434656455004 1.3082920547631138319 1.437396440306549783 1.4203842338369956355 1.4204388728378611884 1.4373821034389095974 1.3083168843180383867 0.63595872915450868401 0.97469046407921478004 1.0754623265681904076 1.0414600843120176421 1.0404912380699300467 1.0404266397349115625 1.0414557970421585154 1.0754415511401140826 0.9746978777626593704 0.93218177059225115766 1.2004159948176971184 1.1287580621724762064 1.1172460897099238952 1.117339351707277384 1.1287460737635013341 1.2004104417791530146 0.93218996958218669491 0.83536828543977670325 1.2661962362620120537 1.2114651124003896765 1.1823568810269784457 1.1823257769126009897 1.2114452192869495928 1.2661822658094792349 0.83539272925724006313 0.73832516998333619362 1.2787777138452740555 1.2690436912564635463 1.2290072157503242334 1.2290114968452203748 1.2690272452602378017 1.2787699178915581388 0.73834805949719051199 0.6664615731087265571 1.2616438379346202048 1.2998610773883856329 1.259463208744833862 1.2594334458761136109 1.2998361405330809415 1.2616534963933330182 0.66647123303265498606 0.61616520538665420226 1.2319172350409515193 1.3119847476369910222 1.2787439132207039094 1.2787013258580259834 1.3119672445331544974 1.2319142937576361696 0.6161668138280244067 0.58130071521942783264 1.1974009938700365119 1.309502567659304173 1.2867403444374843069 1.2866321649017922191 1.3095186093136157446 1.197404077621309737 0.58130188659176129651 0.57299005181197437686 1.1769264083871027182 1.3082949720255083736 1.2994160500971236871 1.2993797583785786642 1.3083234017765097423 1.1769225413732193886 0.57300001753801832471 0.8955160990514272612 0.97469372182094504709 0.95030839057376670365 0.94807177065963277318 0.94813692227808621382 0.95032492588354011698 0.97469614678991045587 0.89552130085876557875 0.74975245313859328888 0.9321887187100279526 0.88488196065092861176 0.87359664104114664873 0.87350203012174043593 0.88488026668769725891 0.93218868240263663694 0.7497646714732812967 0.57013608561861772728 0.83537574087835120284 0.80724169202349438379 0.78474986947927050096 0.78480433769883695128 0.80725545772060236516 0.83538858968814133643 0.57015605990115281188 0.43968450331386443874 0.73832861907105706845 0.74295304747218227082 0.71846125499990542984 0.71845390763922400978 0.74297003144640116901 0.73834453613346351375 0.43970029348798145286 0.3702705588892039601 0.66646138659356723988 0.69825416977500565086 0.6802401778032884927 0.68032582400252306076 0.69827967193927376055 0.66647416190623176568 0.37027701600146512018 0.33043617692157989385 0.6161621929488518834 0.66731512929691438885 0.65865552215007727721 0.65878155392574677673 0.66733683218589723296 0.61617202814655580578 0.33044315241707911124 0.30532721062746659424 0.58129796068224548478 0.64461785306242502802 0.6441459306772384652 0.64397673299118729506 0.64456423292049980223 0.58130617660495798038 0.30533692023987690778 0.30096896433911102253 0.57299057716899115533 0.63597031543965387712 0.64082803900482521176 0.6406916233870632027 0.63594663526040229318 0.57300157326441170103 0.30098312157902989972 
        </DataArray>
      </CellData>
      <Points>
        <DataArray Name="m" NumberOfComponents="3" type="Float32" format="ascii">
0 0 0 0.125 0 0 0.25 0 0 0.375 0 0 0.5 0 0 0.625 0 0 0.75 0 0 0.875 0 0 1 0 0 0 0.125 0 0.125 0.125 0 0.25 0.125 0 0.375 0.125 0 0.5 0.125 0 0.625 0.125 0 0.75 0.125 0 0.875 0.125 0 1 0.125 0 0 0.25 0 0.125 0.25 0 0.25 0.25 0 0.375 0.25 0 0.5 0.25 0 0.625 0.25 0 0.75 0.25 0 0.875 0.25 0 1 0.25 0 0 0.375 0 0.125 0.375 0 0.25 0.375 0 0.375 0.375 0 0.5 0.375 0 0.625 0.375 0 0.75 0.375 0 0.875 0.375 0 1 0.375 0 0 0.5 0 0.125 0.5 0 0.25 0.5 0 0.375 0.5 0 0.5 0.5 0 0.625 0.5 0 0.75 0.5 0 0.875 0.5 0 1 0.5 0 0 0.625 0 0.125 0.625 0 0.25 0.625 0 0.375 0.625 0 0.5 0.625 0 0.625 0.625 0 0.75 0.625 0 0.875 0.625 0 1 0.625 0 0 0.75 0 0.125 0.75 0 0.25 0.75 0 0.375 0.75 0 0.5 0.75 0 0.625 0.75 0 0.75 0.75 0 0.875 0.75 0 1 0.75 0 0 0.875 0 0.125 0.875 0 0.25 0.875 0 0.375 0.875 0 0.5 0.875 0 0.625 0.875 0 0.75 0.875 0 0.875 0.875 0 1 0.875 0 0 1 0 0.125 1 0 0.25 1 0 0.375 1 0 0.5 1 0 0.625 1 0 0.75 1 0 0.875 1 0 1 1 0 0 0 0.125 0.125 0 0.125 0.25 0 0.125 0.375 0 0.125 0.5 0 0.125 0.625 0 0.125 0.75 0 0.125 0.875 0 0.125 1 0 0.125 0 0.125 0.125 0.125 0.125 0.125 0.25 0.125 0.125 0.375 0.125 0.125 0.5 0.125 0.125 0.625 0.125 0.125 0.75 0.125 0.125 0.875 0.125 0.125 1 0.125 0.125 0 0.25 0.125 0.125 0.25 0.125 0.25 0.25 0.125 0.375 0.25 0.125 0.5 0.25 0.125 0.625 0.25 0.125 0.75 0.25 0.125 0.875 0.25 0.125 1 0.25 0.125 0 0.375 0.125 0.125 0.375 0.125 0.25 0.375 0.125 0.375 0.375 0.125 0.5 0.375 0.125 0.625 0.375 0.125 0.75 0.375 0.125 0.875 0.375 0.125 1 0.375 0.125 0 0.5 0.125 0.125 0.5 0.125 0.25 0.5 0.125 0.375 0.5 0.125 0.5 0.5 0.125 0.625 0.5 0.125 0.75 0.5 0.125 0.875 0.5 0.125 1 0.5 0.125 0 0.625 0.125 0.125 0.625 0.125 0.25 0.625 0.125 0.375 0.625 0.125 0.5 0.625 0.125 0.625 0.625 0.125 0.75 0.625 0.125 0.875 0.625 0.125 1 0.625 0.125 0 0.75 0.125 0.125 0.75 0.125 0.25 0.75 0.125 0.375 0.75 0.125 0.5 0.75 0.125 0.625 0.75 0.125 0.75 0.75 0.125 0.875 0.75 0.125 1 0.75 0.125 0 0.875 0.125 0.125 0.875 0.125 0.25 0.875 0.125 0.375 0.875 0.125 0.5 0.875 0.125 0.625 0.875 0.125 0.75 0.875 0.125 0.875 0.875 0.125 1 0.875 0.125 0 1 0.125 0.125 1 0.125 0.25 1 0.125 0.375 1 0.125 0.5 1 0.125 0.625 1 0.125 0.75 1 0.125 0.875 1 0.125 1 1 0.125 0 0 0.25 0.125 0 0.25 0.25 0 0.25 0.375 0 0.25 0.5 0 0.25 0.625 0 0.25 0.75 0 0.25 0.875 0 0.25 1 0 0.25 0 0.125 0.25 0.125 0.125 0.25 0.25 0.125 0.25 0.375 0.125 0.25 0.5 0.125 0.25 0.625 0.125 0.25 0.75 0.125 0.25 0.875 0.125 0.25 1 0.125 0.25 0 0.25 0.25 0.125 0.25 0.25 0.25 0.25 0.25 0.375 0.25 0.25 0.5 0.25 0.25 0.625 0.25 0.25 0.75 0.25 0.25 0.875 0.25 0.25 1 0.25 0.25 0 0.375 0.25 0.125 0.375 0.25 0.25 0.375 0.25 0.375 0.375 0.25 0.5 0.375 0.25 0.625 0.375 0.25 0.75 0.375 0.25 0.875 0.375 0.25 1 0.375 0.25 0 0.5 0.25 0.125 0.5 0.25 0.25 0.5 0.25 0.375 0.5 0.25 0.5 0.5 0.25 0.625 0.5 0.25 0.75 0.5 0.25 0.875 0.5 0.25 1 0.5 0.25 0 0.625 0.25 0.125 0.625 0.25 0.25 0.625 0.25 0.375 0.625 0.25 0.5 0.625 0.25 0.625 0.625 0.25 0.75 0.625 0.25 0.875 0.625 0.25 1 0.625 0.25 0 0.75 0.25 0.125 0.75 0.25 0.25 0.75 0.25 0.375 0.75 0.25 0.5 0.75 0.25 0.625 0.75 0.25 0.75 0.75 0.25 0.875 0.75 0.25 1 0.75 0.25 0 0.875 0.25 0.125 0.875 0.25 0.25 0.875 0.25 0.375 0.875 0.25 0.5 0.875 0.25 0.625 0.875 0.25 0.75 0.875 0.25 0.875 0.875 0.25 1 0.875 0.25 0 1 0.25 0.125 1 0.25 0.25 1 0.25 0.375 1 0.25 0.5 1 0.25 0.625 1 0.25 0.75 1 0.25 0.875 1 0.25 1 1 0.25 0 0 0.375 0.125 0 0.375 0.25 0 0.375 0.375 0 0.375 0.5 0 0.375 0.625 0 0.375 0.75 0 0.375 0.875 0 0.375 1 0 0.375 0 0.125 0.375 0.125 0.125 0.375 0.25 0.125 0.375 0.375 0.125 0.375 0.5 0.125 0.375 0.625 0.125 0.375 0.75 0.125 0.375 0.875 0.125 0.375 1 0.125 0.375 0 0.25 0.375 0.125 0.25 0.375 0.25 0.25 0.375 0.375 0.25 0.375 0.5 0.25 0.375 0.625 0.25 0.375 0.75 0.25 0.375 0.875 0.25 0.375 1 0.25 0.375 0 0.375 0.375 0.125 0.375 0.375 0.25 0.375 0.375 0.375 0.375 0.375 0.5 0.375 0.375 0.625 0.375 0.375 0.75 0.375 0.375 0.875 0.375 0.375 1 0.375 0.375 0 0.5 0.375 0.125 0.5 0.375 0.25 0.5 0.375 0.375 0.5 0.375 0.5 0.5 0.375 0.625 0.5 0.375 0.75 0.5 0.375 0.875 0.5 0.375 1 0.5 0.375 0 0.625 0.375 0.125 0.625 0.375 0.25 0.625 0.375 0.375 0.625 0.375 0.5 0.625 0.375 0.625 0.625 0.375 0.75 0.625 0.375 0.875 0.625 0.375 1 0.625 0.375 0 0.75 0.375 0.125 0.75 0.375 0.25 0.75 0.375 0.375 0.75 0.375 0.5 0.75 0.375 0.625 0.75 0.375 0.75 0.75 0.375 0.875 0.75 0.375 1 0.75 0.375 0 0.875 0.375 0.125 0.875 0.375 0.25 0.875 0.375 0.375 0.875 0.375 0.5 0.875 0.375 0.625 0.875 0.375 0.75 0.875 0.375 0.875 0.875 0.375 1 0.875 0.375 0 1 0.375 0.125 1 0.375 0.25 1 0.375 0.375 1 0.375 0.5 1 0.375 0.625 1 0.375 0.75 1 0.375 0.875 1 0.375 1 1 0.375 0 0 0.5 0.125 0 0.5 0.25 0 0.5 0.375 0 0.5 0.5 0 0.5 0.625 0 0.5 0.75 0 0.5 0.875 0 0.5 1 0 0.5 0 0.125 0.5 0.125 0.125 0.5 0.25 0.125 0.5 0.375 0.125 0.5 0.5 0.125 0.5 0.625 0.125 0.5 0.75 0.125 0.5 0.875 0.125 0.5 1 0.125 0.5 0 0.25 0.5 0.125 0.25 0.5 0.25 0.25 0.5 0.375 0.25 0.5 0.5 0.25 0.5 0.625 0.25 0.5 0.75 0.25 0.5 0.875 0.25 0.5 1 0.25 0.5 0 0.375 0.5 0.125 0.375 0.5 0.25 0.375 0.5 0.375 0.375 0.5 0.5 0.375 0.5 0.625 0.375 0.5 0.75 0.375 0.5 0.875 0.375 0.5 1 0.375 0.5 0 0.5 0.5 0.125 0.5 0.5 0.25 0.5 0.5 0.375 0.5 0.5 0.5 0.5 0.5 0.625 0.5 0.5 0.75 0.5 0.5 0.875 0.5 0.5 1 0.5 0.5 0 0.625 0.5 0.125 0.625 0.5 0.25 0.625 0.5 0.375 0.625 0.5 0.5 0.625 0.5 0.625 0.625 0.5 0.75 0.625 0.5 0.875 0.625 0.5 1 0.625 0.5 0 0.75 0.5 0.125 0.75 0.5 0.25 0.75 0.5 0.375 0.75 0.5 0.5 0.75 0.5 0.625 0.75 0.5 0.75 0.75 0.5 0.875 0.75 0.5 1 0.75 0.5 0 0.875 0.5 0.125 0.875 0.5 0.25 0.875 0.5 0.375 0.875 0.5 0.5 0.875 0.5 0.625 0.875 0.5 0.75 0.875 0.5 0.875 0.875 0.5 1 0.875 0.5 0 1 0.5 0.125 1 0.5 0.25 1 0.5 0.375 1 0.5 0.5 1 0.5 0.625 1 0.5 0.75 1 0.5 0.875 1 0.5 1 1 0.5 0 0 0.625 0.125 0 0.625 0.25 0 0.625 0.375 0 0.625 0.5 0 0.625 0.625 0 0.625 0.75 0 0.625 0.875 0 0.625 1 0 0.625 0 0.125 0.625 0.125 0.125 0.625 0.25 0.125 0.625 0.375 0.125 0.625 0.5 0.125 0.625 0.625 0.125 0.625 0.75 0.125 0.625 0.875 0.125 0.625 1 0.125 0.625 0 0.25 0.625 0.125 0.25 0.625 0.25 0.25 0.625 0.375 0.25 0.625 0.5 0.25 0.625 0.625 0.25 0.625 0.75 0.25 0.625 0.875 0.25 0.625 1 0.25 0.625 0 0.375 0.625 0.125 0.375 0.625 0.25 0.375 0.625 0.375 0.375 0.625 0.5 0.375 0.625 0.625 0.375 0.625 0.75 0.375 0.625 0.875 0.375 0.625 1 0.375 0.625 0 0.5 0.625 0.125 0.5 0.625 0.25 0.5 0.625 0.375 0.5 0.625 0.5 0.5 0.625 0.625 0.5 0.625 0.75 0.5 0.625 0.875 0.5 0.625 1 0.5 0.625 0 0.625 0.625 0.125 0.625 0.625 0.25 0.625 0.625 0.375 0.625 0.625 0.5 0.625 0.625 0.625 0.625 0.625 0.75 0.625 0.625 0.875 0.625 0.625 1 0.625 0.625 0 0.75 0.625 0.125 0.75 0.625 0.25 0.75 0.625 0.375 0.75 0.625 0.5 0.75 0.625 0.625 0.75 0.625 0.75 0.75 0.625 0.875 0.75 0.625 1 0.75 0.625 0 0.875 0.625 0.125 0.875 0.625 0.25 0.875 0.625 0.375 0.875 0.625 0.5 0.875 0.625 0.625 0.875 0.625 0.75 0.875 0.625 0.875 0.875 0.625 1 0.875 0.625 0 1 0.625 0.125 1 0.625 0.25 1 0.625 0.375 1 0.625 0.5 1 0.625 0.625 1 0.625 0.75 1 0.625 0.875 1 0.625 1 1 0.625 0 0 0.75 0.125 0 0.75 0.25 0 0.75 0.375 0 0.75 0.5 0 0.75 0.625 0 0.75 0.75 0 0.75 0.875 0 0.75 1 0 0.75 0 0.125 0.75 0.125 0.125 0.75 0.25 0.125 0.75 0.375 0.125 0.75 0.5 0.125 0.75 0.625 0.125 0.75 0.75 0.125 0.75 0.875 0.125 0.75 1 0.125 0.75 0 0.25 0.75 0.125 0.25 0.75 0.25 0.25 0.75 0.375 0.25 0.75 0.5 0.25 0.75 0.625 0.25 0.75 0.75 0.25 0.75 0.875 0.25 0.75 1 0.25 0.75 0 0.375 0.75 0.125 0.375 0.75 0.25 0.375 0.75 0.375 0.375 0.75 0.5 0.375 0.75 0.625 0.375 0.75 0.75 0.375 0.75 0.875 0.375 0.75 1 0.375 0.75 0 0.5 0.75 0.125 0.5 0.75 0.25 0.5 0.75 0.375 0.5 0.75 0.5 0.5 0.75 0.625 0.5 0.75 0.75 0.5 0.75 0.875 0.5 0.75 1 0.5 0.75 0 0.625 0.75 0.125 0.625 0.75 0.25 0.625 0.75 0.375 0.625 0.75 0.5 0.625 0.75 0.625 0.625 0.75 0.75 0.625 0.75 0.875 0.625 0.75 1 0.625 0.75 0 0.75 0.75 0.125 0.75 0.75 0.25 0.75 0.75 0.375 0.75 0.75 0.5 0.75 0.75 0.625 0.75 0.75 0.75 0.75 0.75 0.875 0.75 0.75 1 0.75 0.75 0 0.875 0.75 0.125 0.875 0.75 0.25 0.875 0.75 0.375 0.875 0.75 0.5 0.875 0.75 0.625 0.875 0.75 0.75 0.875 0.75 0.875 0.875 0.75 1 0.875 0.75 0 1 0.75 0.125 1 0.75 0.25 1 0.75 0.375 1 0.75 0.5 1 0.75 0.625 1 0.75 0.75 1 0.75 0.875 1 0.75 1 1 0.75 0 0 0.875 0.125 0 0.875 0.25 0 0.875 0.375 0 0.875 0.5 0 0.875 0.625 0 0.875 0.75 0 0.875 0.875 0 0.875 1 0 0.875 0 0.125 0.875 0.125 0.125 0.875 0.25 0.125 0.875 0.375 0.125 0.875 0.5 0.125 0.875 0.625 0.125 0.875 0.75 0.125 0.875 0.875 0.125 0.875 1 0.125 0.875 0 0.25 0.875 0.125 0.25 0.875 0.25 0.25 0.875 0.375 0.25 0.875 0.5 0.25 0.875 0.625 0.25 0.875 0.75 0.25 0.875 0.875 0.25 0.875 1 0.25 0.875 0 0.375 0.875 0.125 0.375 0.875 0.25 0.375 0.875 0.375 0.375 0.875 0.5 0.375 0.875 0.625 0.375 0.875 0.75 0.375 0.875 0.875 0.375 0.875 1 0.375 0.875 0 0.5 0.875 0.125 0.5 0.875 0.25 0.5 0.875 0.375 0.5 0.875 0.5 0.5 0.875 0.625 0.5 0.875 0.75 0.5 0.875 0.875 0.5 0.875 1 0.5 0.875 0 0.625 0.875 0.125 0.625 0.875 0.25 0.625 0.875 0.375 0.625 0.875 0.5 0.625 0.875 0.625 0.625 0.875 0.75 0.625 0.875 0.875 0.625 0.875 1 0.625 0.875 0 0.75 0.875 0.125 0.75 0.875 0.25 0.75 0.875 0.375 0.75 0.875 0.5 0.75 0.875 0.625 0.75 0.875 0.75 0.75 0.875 0.875 0.75 0.875 1 0.75 0.875 0 0.875 0.875 0.125 0.875 0.875 0.25 0.875 0.875 0.375 0.875 0.875 0.5 0.875 0.875 0.625 0.875 0.875 0.75 0.875 0.875 0.875 0.875 0.875 1 0.875 0.875 0 1 0.875 0.125 1 0.875 0.25 1 0.875 0.375 1 0.875 0.5 1 0.875 0.625 1 0.875 0.75 1 0.875 0.875 1 0.875 1 1 0.875 0 0 1 0.125 0 1 0.25 0 1 0.375 0 1 0.5 0 1 0.625 0 1 0.75 0 1 0.875 0 1 1 0 1 0 0.125 1 0.125 0.125 1 0.25 0.125 1 0.375 0.125 1 0.5 0.125 1 0.625 0.125 1 0.75 0.125 1 0.875 0.125 1 1 0.125 1 0 0.25 1 0.125 0.25 1 0.25 0.25 1 0.375 0.25 1 0.5 0.25 1 0.625 0.25 1 0.75 0.25 1 0.875 0.25 1 1 0.25 1 0 0.375 1 0.125 0.375 1 0.25 0.375 1 0.375 0.375 1 0.5 0.375 1 0.625 0.375 1 0.75 0.375 1 0.875 0.375 1 1 0.375 1 0 0.5 1 0.125 0.5 1 0.25 0.5 1 0.375 0.5 1 0.5 0.5 1 0.625 0.5 1 0.75 0.5 1 0.875 0.5 1 1 0.5 1 0 0.625 1 0.125 0.625 1 0.25 0.625 1 0.375 0.625 1 0.5 0.625 1 0.625 0.625 1 0.75 0.625 1 0.875 0.625 1 1 0.625 1 0 0.75 1 0.125 0.75 1 0.25 0.75 1 0.375 0.75 1 0.5 0.75 1 0.625 0.75 1 0.75 0.75 1 0.875 0.75 1 1 0.75 1 0 0.875 1 0.125 0.875 1 0.25 0.875 1 0.375 0.875 1 0.5 0.875 1 0.625 0.875 1 0.75 0.875 1 0.875 0.875 1 1 0.875 1 0 1 1 0.125 1 1 0.25 1 1 0.375 1 1 0.5 1 1 0.625 1 1 0.75 1 1 0.875 1 1 1 1 1         </DataArray>
      </Points>
    </Piece>
  </StructuredGrid>
</VTKFile>
