<?xml version="1.0"?>
<VTKFile type="StructuredGrid" version="0.1" byte_order="LittleEndian">
  <StructuredGrid WholeExtent="0 8 0 8 0 8">
    <Piece Extent="0 8 0 8 0 8">
      <PointData>
      </PointData>
      <CellData>
        <DataArray Name="vy" NumberOfComponents="1" type="Float32" format="ascii">
0.89554666477243149991 0.9746647719733054771 0.95031442122547360452 0.9480580965367922941 0.94811004160938938679 0.95031109082267539723 0.97466142246974707408 0.89552669725971734138 0.74983443468590382786 0.9322285499645920348 0.88489701788738472921 0.87358155971554785069 0.87348226032239628669 0.88485743108570125148 0.93222352505721106652 0.74978869547170035048 0.57029146334032820853 0.83544425452003889809 0.80727529723163315989 0.78472454158147453285 0.78468531382229778082 0.80724862921787110537 0.83541763787847078682 0.57025569866998992996 0.4399202448624936479 0.73848104752221521707 0.74298712829681667902 0.71832186154503696596 0.71823996674734957857 0.74294707852087504829 0.73844216012560848217 0.43989732317918767146 0.3706005200657699894 0.66663987022558235385 0.69829301119119147057 0.67991327362811437851 0.679866732312161548 0.6982746456339509189 0.66662377051083065993 0.37058484890936005396 0.33097883068357686343 0.61641086841403558427 0.66746841201582840508 0.65796980311652575324 0.65805924661197368053 0.66749992054201545688 0.61641609374621331163 0.33096424016555192615 0.30577676990369062615 0.58200873284180654199 0.64406337459438056658 0.6419314787541126055 0.64219374732755118984 0.64412234542928281655 0.58201935974422636111 0.30577327419294975108 0.29907297879439753707 0.57119891131630384784 0.63898971808733218136 0.63801765029457202516 0.63805239816361836169 0.63901427643368913234 0.57119864593106894901 0.29906916143168915667 0.97466068029469365985 1.0753974007489299769 1.0414681404107963836 1.040472258361219593 1.0404152431212079222 1.0414676093946151347 1.0754308879105736185 0.974649377447383225 0.93222263162181651097 1.2004353238691864991 1.1287515719592273733 1.1171948751834805957 1.1172637516410299785 1.1288020993021516958 1.2004654284379259188 0.93219984376795750336 0.83543830255922246764 1.2662567057269320525 1.2114312876427550947 1.1822461429642192599 1.1822582353738801952 1.2114679348535677406 1.2662487188499356172 0.83542083699841152011 0.73847504575489120171 1.278843466089673031 1.2691015642405918395 1.2288737572473475979 1.2288871592013637102 1.2691439725622273293 1.2788659263769446284 0.73843692432830732031 0.66663836378799268267 1.261971118985628193 1.3001866321015678185 1.2592909424733169654 1.2593259114383983377 1.3001978448359836626 1.2619957312260863258 0.66662753003562214005 0.61640745309139399755 1.2327073038864160281 1.3129411416986844774 1.2787500548910417653 1.278715452395369212 1.3129550603603621362 1.232674729450740303 0.61642851830545175584 0.58200669785703196268 1.200645553358554718 1.3121264281515021555 1.2867036982359796315 1.2865988469137792372 1.3120831413571176771 1.2006559587308283099 0.58202397878739153825 0.57119678400954509989 1.1806042127531157782 1.3149374511086315831 1.3002150902501303786 1.2999140281056906776 1.3148716645651581381 1.1806270498518154355 0.57120560132546394083 0.95031454580145147126 1.0414669009206838357 1.0109703733417829685 1.0094859076635387396 1.0094836771228949956 1.0109742380893582681 1.0414892704037985727 0.95029168700516097879 0.88489851266374353056 1.1287479858169371383 1.0630955642397379446 1.0510842627940475413 1.0510964959041957378 1.0631092136703135242 1.1287579081685421567 0.88488431236173115124 0.80726402879526759637 1.2114340617623595708 1.1601325340704193856 1.1312734077907284913 1.131301434190523425 1.1601579045036378712 1.211487055668567514 0.80723360742222560749 0.74298166150769784366 1.2690918935583803684 1.2567288105549017097 1.2171179086536756397 1.2171356113516067499 1.256767963900473406 1.2691323621821273271 0.7429582779638889134 0.69828363906307200359 1.3001792981284201467 1.3307647128210684517 1.2888129023727883382 1.2888100587384969664 1.3307931634144718469 1.3001728004226549285 0.69829505077090281429 0.66745760068308279678 1.3129311373012344522 1.3831854268939010044 1.3450216303862601031 1.3450507481184257319 1.3831561971662369448 1.3129769487881346457 0.6674944325601044337 0.6440422849771700875 1.3120960360326536787 1.4137412463138183671 1.3817155090828967534 1.3817990942095628171 1.4137929832859981172 1.3120944177376232531 0.64413418950897671778 0.63898490228843252137 1.3149090893979886729 1.4408356548214740211 1.4171610523939546233 1.4173129257467789177 1.4408213970134708948 1.3148812805999423592 0.63901917614248060495 0.94805228214612902171 1.0404808269063390291 1.0094869348081545457 1.0080387586375916253 1.0080480767036694711 1.009487294252461087 1.0404867864950451128 0.9480411145430358566 0.8735763041200114154 1.1171932445836492143 1.0510953403844915943 1.0390899367822203914 1.0391164502657594948 1.0510996797082288179 1.117248501452863696 0.87354160882629605656 0.78472335160048511948 1.1822436603774992836 1.1312735700883003176 1.1025268537696841786 1.1025073061958696741 1.131317470184902696 1.1822534315433046448 0.78467711341291901395 0.7183062352644840054 1.2288759528126478315 1.2171207879581151801 1.1780784715751948522 1.1781266129647829377 1.2171411584297400221 1.2288752207403603744 0.71826492414767995065 0.67989278874248637585 1.2592892448916932491 1.2888046437204547789 1.248489033593591202 1.2485311736407183059 1.288816844455288102 1.2593442469624822611 0.6798704720445709615 0.65794903407063154432 1.2787187477363282095 1.3450166398007006308 1.309378640642996805 1.3093566161291563255 1.345038851871410257 1.2787318355659611502 0.65804052156765402426 0.64186632690709999327 1.2866280725201000301 1.3817965636390947548 1.3521121202551265039 1.3521546140880498221 1.3818108883038904278 1.2865909474619146025 0.64219692792190719022 0.63804904460293954127 1.3000383398594133055 1.417278547483193929 1.3953538943111452042 1.3954657362072717675 1.4173097169988069233 1.2999288123060690481 0.63805376915757483491 0.9481203183596508266 1.040405661100901602 1.0094807433743575587 1.0080515895006103566 1.0080436092203715059 1.0094814159172826873 1.0403884532846157107 0.94814712596237271658 0.87348608186672782594 1.1172755203285111847 1.0510803905735948138 1.0391175341913003738 1.039099194235668211 1.0510636429764501631 1.1172556412938599024 0.87351424687451140194 0.78468927884383621318 1.1822489533532516415 1.1313109838516484107 1.1024978244896177504 1.1024971153614044894 1.1312862809692842969 1.1822257602570240831 0.78475818141989894805 0.718250612639019681 1.228891620793859385 1.2171272222094406956 1.1781366740913776781 1.1780978816220184502 1.2170813151538126817 1.2288960005030988842 0.71831583908106610981 0.67988015776674259882 1.2593220759987622248 1.288828983063648348 1.248536727753194242 1.2484789462567529306 1.2888040931699191738 1.2593114676815884145 0.67991230924175793948 0.65807903494199404548 1.2787259474327243858 1.3450728494790491485 1.3093691373156495228 1.30937213498524474 1.3450393977364336617 1.2787377364067813446 0.65800644238727312718 0.64225539817300958401 1.2866585362023186256 1.3817272017817112673 1.3521957520699996458 1.3521302727337676242 1.3817131501919361902 1.2867181709738189088 0.64193544053558604379 0.6380280147571170124 1.3000638051252348948 1.4171857014437414524 1.3955301689991082004 1.3953687470507813995 1.4171695196668612216 1.3002029779684372013 0.63802503523027342958 0.95030877614001552089 1.0414675201115672909 1.0109762327433537976 1.0094823634365803766 1.0094844617209921545 1.0109725494843642135 1.0414542744545516317 0.95033543635270389949 0.88486914074312794654 1.1287776793939408027 1.0631111982124015203 1.0510759596108747438 1.0510823166695335562 1.0631055688516179991 1.1287470686647480544 0.8849092847409030238 0.80724516300708359928 1.2114845718618194592 1.1601484189373505451 1.1313125721826429171 1.1313008912000535044 1.1600947900303175686 1.211448612500848121 0.80728858409072101754 0.74295016248011380711 1.269133361048610853 1.2568031592993851309 1.2171281651136942603 1.2170888163335085164 1.2567423792602283594 1.2690908043209327971 0.74300392263864745157 0.69829053688989883852 1.3002045533673365352 1.3307916194332705118 1.2888494951193782967 1.2887821892943545077 1.3307560049929141321 1.3001926084816661788 0.69830304893280237266 0.66752301890909060411 1.3129607759413903789 1.3831327318755504141 1.3450685522268661654 1.3450267338196673084 1.3831370809401708488 1.3129803503260302211 0.66748095775603455415 0.64416768546811686846 1.3120926949218043589 1.4137420496978161388 1.3817779482220535758 1.3817549454857287472 1.4137635331295814733 1.3121119347901404328 0.64407772873536472957 0.63904145428646574878 1.3149422425424721617 1.4407305345282050979 1.4171969218175768379 1.4172724326823213925 1.4408267054395753615 1.3149632890220490644 0.63899383055653635743 0.97466114157793737327 1.0754296904200528751 1.0414844393049482729 1.0404968450503746524 1.0403773785714560685 1.0414577652810304009 1.075385896755804982 0.97467670898048508477 0.93221049318112636506 1.2004885390294810499 1.1287603979137736943 1.117295792803113752 1.11721849969177911 1.1287165881529768185 1.2004438350634911714 0.93223582655206971292 0.83542339538179777314 1.2662317628974766315 1.2115047809695522751 1.1822680470242608042 1.1821993614770049952 1.2114502931771982119 1.266237775602267801 0.83545798888672251348 0.73843854347090498447 1.2788690468794070565 1.269121797591781009 1.228913651745637603 1.2288642298584100399 1.2690810680201214389 1.2788561584094657597 0.73848590121887802695 0.66661535810049410422 1.2619880996537264917 1.300207805533180494 1.2593221932496510007 1.2593279765730438502 1.3001569756805890776 1.2619914348309997365 0.66665284394114632249 0.61641006359401639969 1.232689858906241831 1.3129767322903764803 1.2787168889999738219 1.2787318421245639222 1.3129762745451731831 1.2327054071438654503 0.61642440868878400906 0.5820254653132772571 1.2006587055967903321 1.3120910129562954882 1.2866281357643420957 1.2866650839581692534 1.3120945126294276672 1.2006796885746806591 0.58201779355909122327 0.57119241351766014692 1.1806356361177696712 1.3149551353595669845 1.3000507764221298501 1.3000540817351151635 1.3149316623009839056 1.1806140646398883831 0.57120739902238581998 0.89552409815484412814 0.97465472372977390858 0.95029626847483017471 0.94803528493769639862 0.94815746380137666538 0.95032865132576938016 0.97466699226180941729 0.89554161773724860751 0.74978972947656852277 0.93219534156911976197 0.88488646438056905996 0.87348789171491170169 0.87356654266339905934 0.88492032157775413204 0.93222137705191343571 0.74982771314711138544 0.57024741468757234042 0.83542108305933737711 0.80722526427763463541 0.78466813862416096015 0.78476996190458636615 0.80728216959904530725 0.83545754527905558007 0.57029177422026300359 0.43989214996576386785 0.73842863682163395467 0.74295493707633564195 0.71823037999615124694 0.71834541553329311903 0.74300487755660993283 0.73848457237917330964 0.43992511315330923294 0.37058525328911345875 0.66662154202065926345 0.69828371994153914937 0.67986993468247558514 0.67990575329756464118 0.6983209248720648743 0.66664891128941161647 0.37060630706002245516 0.33096196875233252488 0.61641596642374307802 0.66751891236501559312 0.65807074249324737369 0.65797516279075152212 0.66746879302706840775 0.61642751441567489312 0.33098561599311265846 0.30576540167033638973 0.58203437359525778128 0.64417139223612795984 0.64223126477187464367 0.6418975066284872133 0.64406477756617563912 0.58201146743364240432 0.30578615393672131662 0.29906743241253158638 0.57120219479521272543 0.63904129427632971883 0.63802582492460147012 0.63805998048304624071 0.63899405333085224079 0.57120244157625477133 0.29908206853961405436 
        </DataArray>
      </CellData>
      <Points>
        <DataArray Name="m" NumberOfComponents="3" type="Float32" format="ascii">
0 0 0 0.125 0 0 0.25 0 0 0.375 0 0 0.5 0 0 0.625 0 0 0.75 0 0 0.875 0 0 1 0 0 0 0.125 0 0.125 0.125 0 0.25 0.125 0 0.375 0.125 0 0.5 0.125 0 0.625 0.125 0 0.75 0.125 0 0.875 0.125 0 1 0.125 0 0 0.25 0 0.125 0.25 0 0.25 0.25 0 0.375 0.25 0 0.5 0.25 0 0.625 0.25 0 0.75 0.25 0 0.875 0.25 0 1 0.25 0 0 0.375 0 0.125 0.375 0 0.25 0.375 0 0.375 0.375 0 0.5 0.375 0 0.625 0.375 0 0.75 0.375 0 0.875 0.375 0 1 0.375 0 0 0.5 0 0.125 0.5 0 0.25 0.5 0 0.375 0.5 0 0.5 0.5 0 0.625 0.5 0 0.75 0.5 0 0.875 0.5 0 1 0.5 0 0 0.625 0 0.125 0.625 0 0.25 0.625 0 0.375 0.625 0 0.5 0.625 0 0.625 0.625 0 0.75 0.625 0 0.875 0.625 0 1 0.625 0 0 0.75 0 0.125 0.75 0 0.25 0.75 0 0.375 0.75 0 0.5 0.75 0 0.625 0.75 0 0.75 0.75 0 0.875 0.75 0 1 0.75 0 0 0.875 0 0.125 0.875 0 0.25 0.875 0 0.375 0.875 0 0.5 0.875 0 0.625 0.875 0 0.75 0.875 0 0.875 0.875 0 1 0.875 0 0 1 0 0.125 1 0 0.25 1 0 0.375 1 0 0.5 1 0 0.625 1 0 0.75 1 0 0.875 1 0 1 1 0 0 0 0.125 0.125 0 0.125 0.25 0 0.125 0.375 0 0.125 0.5 0 0.125 0.625 0 0.125 0.75 0 0.125 0.875 0 0.125 1 0 0.125 0 0.125 0.125 0.125 0.125 0.125 0.25 0.125 0.125 0.375 0.125 0.125 0.5 0.125 0.125 0.625 0.125 0.125 0.75 0.125 0.125 0.875 0.125 0.125 1 0.125 0.125 0 0.25 0.125 0.125 0.25 0.125 0.25 0.25 0.125 0.375 0.25 0.125 0.5 0.25 0.125 0.625 0.25 0.125 0.75 0.25 0.125 0.875 0.25 0.125 1 0.25 0.125 0 0.375 0.125 0.125 0.375 0.125 0.25 0.375 0.125 0.375 0.375 0.125 0.5 0.375 0.125 0.625 0.375 0.125 0.75 0.375 0.125 0.875 0.375 0.125 1 0.375 0.125 0 0.5 0.125 0.125 0.5 0.125 0.25 0.5 0.125 0.375 0.5 0.125 0.5 0.5 0.125 0.625 0.5 0.125 0.75 0.5 0.125 0.875 0.5 0.125 1 0.5 0.125 0 0.625 0.125 0.125 0.625 0.125 0.25 0.625 0.125 0.375 0.625 0.125 0.5 0.625 0.125 0.625 0.625 0.125 0.75 0.625 0.125 0.875 0.625 0.125 1 0.625 0.125 0 0.75 0.125 0.125 0.75 0.125 0.25 0.75 0.125 0.375 0.75 0.125 0.5 0.75 0.125 0.625 0.75 0.125 0.75 0.75 0.125 0.875 0.75 0.125 1 0.75 0.125 0 0.875 0.125 0.125 0.875 0.125 0.25 0.875 0.125 0.375 0.875 0.125 0.5 0.875 0.125 0.625 0.875 0.125 0.75 0.875 0.125 0.875 0.875 0.125 1 0.875 0.125 0 1 0.125 0.125 1 0.125 0.25 1 0.125 0.375 1 0.125 0.5 1 0.125 0.625 1 0.125 0.75 1 0.125 0.875 1 0.125 1 1 0.125 0 0 0.25 0.125 0 0.25 0.25 0 0.25 0.375 0 0.25 0.5 0 0.25 0.625 0 0.25 0.75 0 0.25 0.875 0 0.25 1 0 0.25 0 0.125 0.25 0.125 0.125 0.25 0.25 0.125 0.25 0.375 0.125 0.25 0.5 0.125 0.25 0.625 0.125 0.25 0.75 0.125 0.25 0.875 0.125 0.25 1 0.125 0.25 0 0.25 0.25 0.125 0.25 0.25 0.25 0.25 0.25 0.375 0.25 0.25 0.5 0.25 0.25 0.625 0.25 0.25 0.75 0.25 0.25 0.875 0.25 0.25 1 0.25 0.25 0 0.375 0.25 0.125 0.375 0.25 0.25 0.375 0.25 0.375 0.375 0.25 0.5 0.375 0.25 0.625 0.375 0.25 0.75 0.375 0.25 0.875 0.375 0.25 1 0.375 0.25 0 0.5 0.25 0.125 0.5 0.25 0.25 0.5 0.25 0.375 0.5 0.25 0.5 0.5 0.25 0.625 0.5 0.25 0.75 0.5 0.25 0.875 0.5 0.25 1 0.5 0.25 0 0.625 0.25 0.125 0.625 0.25 0.25 0.625 0.25 0.375 0.625 0.25 0.5 0.625 0.25 0.625 0.625 0.25 0.75 0.625 0.25 0.875 0.625 0.25 1 0.625 0.25 0 0.75 0.25 0.125 0.75 0.25 0.25 0.75 0.25 0.375 0.75 0.25 0.5 0.75 0.25 0.625 0.75 0.25 0.75 0.75 0.25 0.875 0.75 0.25 1 0.75 0.25 0 0.875 0.25 0.125 0.875 0.25 0.25 0.875 0.25 0.375 0.875 0.25 0.5 0.875 0.25 0.625 0.875 0.25 0.75 0.875 0.25 0.875 0.875 0.25 1 0.875 0.25 0 1 0.25 0.125 1 0.25 0.25 1 0.25 0.375 1 0.25 0.5 1 0.25 0.625 1 0.25 0.75 1 0.25 0.875 1 0.25 1 1 0.25 0 0 0.375 0.125 0 0.375 0.25 0 0.375 0.375 0 0.375 0.5 0 0.375 0.625 0 0.375 0.75 0 0.375 0.875 0 0.375 1 0 0.375 0 0.125 0.375 0.125 0.125 0.375 0.25 0.125 0.375 0.375 0.125 0.375 0.5 0.125 0.375 0.625 0.125 0.375 0.75 0.125 0.375 0.875 0.125 0.375 1 0.125 0.375 0 0.25 0.375 0.125 0.25 0.375 0.25 0.25 0.375 0.375 0.25 0.375 0.5 0.25 0.375 0.625 0.25 0.375 0.75 0.25 0.375 0.875 0.25 0.375 1 0.25 0.375 0 0.375 0.375 0.125 0.375 0.375 0.25 0.375 0.375 0.375 0.375 0.375 0.5 0.375 0.375 0.625 0.375 0.375 0.75 0.375 0.375 0.875 0.375 0.375 1 0.375 0.375 0 0.5 0.375 0.125 0.5 0.375 0.25 0.5 0.375 0.375 0.5 0.375 0.5 0.5 0.375 0.625 0.5 0.375 0.75 0.5 0.375 0.875 0.5 0.375 1 0.5 0.375 0 0.625 0.375 0.125 0.625 0.375 0.25 0.625 0.375 0.375 0.625 0.375 0.5 0.625 0.375 0.625 0.625 0.375 0.75 0.625 0.375 0.875 0.625 0.375 1 0.625 0.375 0 0.75 0.375 0.125 0.75 0.375 0.25 0.75 0.375 0.375 0.75 0.375 0.5 0.75 0.375 0.625 0.75 0.375 0.75 0.75 0.375 0.875 0.75 0.375 1 0.75 0.375 0 0.875 0.375 0.125 0.875 0.375 0.25 0.875 0.375 0.375 0.875 0.375 0.5 0.875 0.375 0.625 0.875 0.375 0.75 0.875 0.375 0.875 0.875 0.375 1 0.875 0.375 0 1 0.375 0.125 1 0.375 0.25 1 0.375 0.375 1 0.375 0.5 1 0.375 0.625 1 0.375 0.75 1 0.375 0.875 1 0.375 1 1 0.375 0 0 0.5 0.125 0 0.5 0.25 0 0.5 0.375 0 0.5 0.5 0 0.5 0.625 0 0.5 0.75 0 0.5 0.875 0 0.5 1 0 0.5 0 0.125 0.5 0.125 0.125 0.5 0.25 0.125 0.5 0.375 0.125 0.5 0.5 0.125 0.5 0.625 0.125 0.5 0.75 0.125 0.5 0.875 0.125 0.5 1 0.125 0.5 0 0.25 0.5 0.125 0.25 0.5 0.25 0.25 0.5 0.375 0.25 0.5 0.5 0.25 0.5 0.625 0.25 0.5 0.75 0.25 0.5 0.875 0.25 0.5 1 0.25 0.5 0 0.375 0.5 0.125 0.375 0.5 0.25 0.375 0.5 0.375 0.375 0.5 0.5 0.375 0.5 0.625 0.375 0.5 0.75 0.375 0.5 0.875 0.375 0.5 1 0.375 0.5 0 0.5 0.5 0.125 0.5 0.5 0.25 0.5 0.5 0.375 0.5 0.5 0.5 0.5 0.5 0.625 0.5 0.5 0.75 0.5 0.5 0.875 0.5 0.5 1 0.5 0.5 0 0.625 0.5 0.125 0.625 0.5 0.25 0.625 0.5 0.375 0.625 0.5 0.5 0.625 0.5 0.625 0.625 0.5 0.75 0.625 0.5 0.875 0.625 0.5 1 0.625 0.5 0 0.75 0.5 0.125 0.75 0.5 0.25 0.75 0.5 0.375 0.75 0.5 0.5 0.75 0.5 0.625 0.75 0.5 0.75 0.75 0.5 0.875 0.75 0.5 1 0.75 0.5 0 0.875 0.5 0.125 0.875 0.5 0.25 0.875 0.5 0.375 0.875 0.5 0.5 0.875 0.5 0.625 0.875 0.5 0.75 0.875 0.5 0.875 0.875 0.5 1 0.875 0.5 0 1 0.5 0.125 1 0.5 0.25 1 0.5 0.375 1 0.5 0.5 1 0.5 0.625 1 0.5 0.75 1 0.5 0.875 1 0.5 1 1 0.5 0 0 0.625 0.125 0 0.625 0.25 0 0.625 0.375 0 0.625 0.5 0 0.625 0.625 0 0.625 0.75 0 0.625 0.875 0 0.625 1 0 0.625 0 0.125 0.625 0.125 0.125 0.625 0.25 0.125 0.625 0.375 0.125 0.625 0.5 0.125 0.625 0.625 0.125 0.625 0.75 0.125 0.625 0.875 0.125 0.625 1 0.125 0.625 0 0.25 0.625 0.125 0.25 0.625 0.25 0.25 0.625 0.375 0.25 0.625 0.5 0.25 0.625 0.625 0.25 0.625 0.75 0.25 0.625 0.875 0.25 0.625 1 0.25 0.625 0 0.375 0.625 0.125 0.375 0.625 0.25 0.375 0.625 0.375 0.375 0.625 0.5 0.375 0.625 0.625 0.375 0.625 0.75 0.375 0.625 0.875 0.375 0.625 1 0.375 0.625 0 0.5 0.625 0.125 0.5 0.625 0.25 0.5 0.625 0.375 0.5 0.625 0.5 0.5 0.625 0.625 0.5 0.625 0.75 0.5 0.625 0.875 0.5 0.625 1 0.5 0.625 0 0.625 0.625 0.125 0.625 0.625 0.25 0.625 0.625 0.375 0.625 0.625 0.5 0.625 0.625 0.625 0.625 0.625 0.75 0.625 0.625 0.875 0.625 0.625 1 0.625 0.625 0 0.75 0.625 0.125 0.75 0.625 0.25 0.75 0.625 0.375 0.75 0.625 0.5 0.75 0.625 0.625 0.75 0.625 0.75 0.75 0.625 0.875 0.75 0.625 1 0.75 0.625 0 0.875 0.625 0.125 0.875 0.625 0.25 0.875 0.625 0.375 0.875 0.625 0.5 0.875 0.625 0.625 0.875 0.625 0.75 0.875 0.625 0.875 0.875 0.625 1 0.875 0.625 0 1 0.625 0.125 1 0.625 0.25 1 0.625 0.375 1 0.625 0.5 1 0.625 0.625 1 0.625 0.75 1 0.625 0.875 1 0.625 1 1 0.625 0 0 0.75 0.125 0 0.75 0.25 0 0.75 0.375 0 0.75 0.5 0 0.75 0.625 0 0.75 0.75 0 0.75 0.875 0 0.75 1 0 0.75 0 0.125 0.75 0.125 0.125 0.75 0.25 0.125 0.75 0.375 0.125 0.75 0.5 0.125 0.75 0.625 0.125 0.75 0.75 0.125 0.75 0.875 0.125 0.75 1 0.125 0.75 0 0.25 0.75 0.125 0.25 0.75 0.25 0.25 0.75 0.375 0.25 0.75 0.5 0.25 0.75 0.625 0.25 0.75 0.75 0.25 0.75 0.875 0.25 0.75 1 0.25 0.75 0 0.375 0.75 0.125 0.375 0.75 0.25 0.375 0.75 0.375 0.375 0.75 0.5 0.375 0.75 0.625 0.375 0.75 0.75 0.375 0.75 0.875 0.375 0.75 1 0.375 0.75 0 0.5 0.75 0.125 0.5 0.75 0.25 0.5 0.75 0.375 0.5 0.75 0.5 0.5 0.75 0.625 0.5 0.75 0.75 0.5 0.75 0.875 0.5 0.75 1 0.5 0.75 0 0.625 0.75 0.125 0.625 0.75 0.25 0.625 0.75 0.375 0.625 0.75 0.5 0.625 0.75 0.625 0.625 0.75 0.75 0.625 0.75 0.875 0.625 0.75 1 0.625 0.75 0 0.75 0.75 0.125 0.75 0.75 0.25 0.75 0.75 0.375 0.75 0.75 0.5 0.75 0.75 0.625 0.75 0.75 0.75 0.75 0.75 0.875 0.75 0.75 1 0.75 0.75 0 0.875 0.75 0.125 0.875 0.75 0.25 0.875 0.75 0.375 0.875 0.75 0.5 0.875 0.75 0.625 0.875 0.75 0.75 0.875 0.75 0.875 0.875 0.75 1 0.875 0.75 0 1 0.75 0.125 1 0.75 0.25 1 0.75 0.375 1 0.75 0.5 1 0.75 0.625 1 0.75 0.75 1 0.75 0.875 1 0.75 1 1 0.75 0 0 0.875 0.125 0 0.875 0.25 0 0.875 0.375 0 0.875 0.5 0 0.875 0.625 0 0.875 0.75 0 0.875 0.875 0 0.875 1 0 0.875 0 0.125 0.875 0.125 0.125 0.875 0.25 0.125 0.875 0.375 0.125 0.875 0.5 0.125 0.875 0.625 0.125 0.875 0.75 0.125 0.875 0.875 0.125 0.875 1 0.125 0.875 0 0.25 0.875 0.125 0.25 0.875 0.25 0.25 0.875 0.375 0.25 0.875 0.5 0.25 0.875 0.625 0.25 0.875 0.75 0.25 0.875 0.875 0.25 0.875 1 0.25 0.875 0 0.375 0.875 0.125 0.375 0.875 0.25 0.375 0.875 0.375 0.375 0.875 0.5 0.375 0.875 0.625 0.375 0.875 0.75 0.375 0.875 0.875 0.375 0.875 1 0.375 0.875 0 0.5 0.875 0.125 0.5 0.875 0.25 0.5 0.875 0.375 0.5 0.875 0.5 0.5 0.875 0.625 0.5 0.875 0.75 0.5 0.875 0.875 0.5 0.875 1 0.5 0.875 0 0.625 0.875 0.125 0.625 0.875 0.25 0.625 0.875 0.375 0.625 0.875 0.5 0.625 0.875 0.625 0.625 0.875 0.75 0.625 0.875 0.875 0.625 0.875 1 0.625 0.875 0 0.75 0.875 0.125 0.75 0.875 0.25 0.75 0.875 0.375 0.75 0.875 0.5 0.75 0.875 0.625 0.75 0.875 0.75 0.75 0.875 0.875 0.75 0.875 1 0.75 0.875 0 0.875 0.875 0.125 0.875 0.875 0.25 0.875 0.875 0.375 0.875 0.875 0.5 0.875 0.875 0.625 0.875 0.875 0.75 0.875 0.875 0.875 0.875 0.875 1 0.875 0.875 0 1 0.875 0.125 1 0.875 0.25 1 0.875 0.375 1 0.875 0.5 1 0.875 0.625 1 0.875 0.75 1 0.875 0.875 1 0.875 1 1 0.875 0 0 1 0.125 0 1 0.25 0 1 0.375 0 1 0.5 0 1 0.625 0 1 0.75 0 1 0.875 0 1 1 0 1 0 0.125 1 0.125 0.125 1 0.25 0.125 1 0.375 0.125 1 0.5 0.125 1 0.625 0.125 1 0.75 0.125 1 0.875 0.125 1 1 0.125 1 0 0.25 1 0.125 0.25 1 0.25 0.25 1 0.375 0.25 1 0.5 0.25 1 0.625 0.25 1 0.75 0.25 1 0.875 0.25 1 1 0.25 1 0 0.375 1 0.125 0.375 1 0.25 0.375 1 0.375 0.375 1 0.5 0.375 1 0.625 0.375 1 0.75 0.375 1 0.875 0.375 1 1 0.375 1 0 0.5 1 0.125 0.5 1 0.25 0.5 1 0.375 0.5 1 0.5 0.5 1 0.625 0.5 1 0.75 0.5 1 0.875 0.5 1 1 0.5 1 0 0.625 1 0.125 0.625 1 0.25 0.625 1 0.375 0.625 1 0.5 0.625 1 0.625 0.625 1 0.75 0.625 1 0.875 0.625 1 1 0.625 1 0 0.75 1 0.125 0.75 1 0.25 0.75 1 0.375 0.75 1 0.5 0.75 1 0.625 0.75 1 0.75 0.75 1 0.875 0.75 1 1 0.75 1 0 0.875 1 0.125 0.875 1 0.25 0.875 1 0.375 0.875 1 0.5 0.875 1 0.625 0.875 1 0.75 0.875 1 0.875 0.875 1 1 0.875 1 0 1 1 0.125 1 1 0.25 1 1 0.375 1 1 0.5 1 1 0.625 1 1 0.75 1 1 0.875 1 1 1 1 1         </DataArray>
      </Points>
    </Piece>
  </StructuredGrid>
</VTKFile>
