<?xml version="1.0"?>
<VTKFile type="StructuredGrid" version="0.1" byte_order="LittleEndian">
  <StructuredGrid WholeExtent="0 8 0 8 0 8">
    <Piece Extent="0 8 0 8 0 8">
      <PointData>
      </PointData>
      <CellData>
        <DataArray Name="vy" NumberOfComponents="1" type="Float32" format="ascii">
0.89552002145440434688 0.97469719916242447688 0.95029736657627172924 0.94803805911593297395 0.94817322719918251117 0.95034240821330118187 0.97470322992341362767 0.89553161870678099632 0.74976137662714004151 0.93217643613499767685 0.88486581021851240525 0.87343437171201609992 0.87364641028765710473 0.88491569009268944423 0.93221757451085307533 0.74978328613995748331 0.57013775749630479783 0.83536832879586575551 0.80722103647887188949 0.78471378335909314217 0.78483087496507542014 0.80728619338147566964 0.83541803772245193382 0.57018070900912209975 0.43970867453536266467 0.73834916826784258159 0.74294676994880715082 0.7184025738435949604 0.71853428099648419813 0.74301336955635521875 0.73839009833225865975 0.43974815795274480035 0.37028966681396668914 0.66648420304576505568 0.6982829310207847584 0.68026963424626196719 0.68031545725388231638 0.69829502067875359739 0.66651521105693845026 0.37031223339857161081 0.33038686353190022116 0.61614784697612579034 0.66733362329073386832 0.65876389354847331159 0.65863446266936276352 0.66727801166429023816 0.61615392825810622046 0.33041424580279182832 0.30526176338578425717 0.58127173252372954515 0.64462249495837697921 0.64423347353571136509 0.64383020784622957411 0.64448019581643700704 0.58127630109259798008 0.30529112645467104681 0.30091695398134510331 0.57296727692844717783 0.63599359750414974357 0.64082355333964446942 0.64063036505291648393 0.63588017886884706797 0.57298464590258024742 0.30095887926441944327 0.97469731131532832968 1.0754687041974833051 1.041490112754943409 1.040530475091278273 1.0403886496474119561 1.0414437462316794569 1.0754475469330810888 0.97469993256176479246 0.93217822852875542594 1.2004648014696968072 1.1287751584411722661 1.1173899201445125495 1.1172082560425622422 1.1287339406255454399 1.2003779417516100558 0.93221687846342371486 0.83536922414241021606 1.2662218816762931262 1.2114905529831510034 1.1824009985345620422 1.1822921579727680985 1.2114268355055524129 1.2661801249609423436 0.83541692615573726055 0.73834880082472487128 1.2788033313480120512 1.2690786809599314822 1.2290486467165209206 1.2289776914519361384 1.2690212305122012815 1.2787980576606092775 0.73839129801112468598 0.6664818615645460298 1.2616738312821740298 1.2998898181515639028 1.2594982552101945394 1.2594167683836745564 1.299869491655748277 1.2616679415018887678 0.66651527815185951376 0.61614741643320136699 1.2319328598179504208 1.3119597800675981691 1.2787716840942202623 1.2786825048827259454 1.31196093862264207 1.2319420745191325128 0.61615019045932495345 0.5812717419816506581 1.1974055952899655964 1.3095076828452303364 1.2866904839475903355 1.2866399787897182527 1.3095063953189798323 1.19737897582302244 0.5812702991745490877 0.57296832858916779685 1.1768983248651436746 1.3082832064001232997 1.2994416976298095445 1.2992600120127113517 1.3082639525937340697 1.1769431184454857142 0.57297542685678981567 0.95029749909747895931 1.0414869725568907111 1.0109765623123121436 1.0095152016431769848 1.0095138735040898315 1.0109842869626477491 1.041444238072268158 0.95034060754921045877 0.88487204738011371319 1.1287684963339088551 1.0631766935071398361 1.0511529897702218683 1.0511727769450971426 1.0631620843323630332 1.1287373218138789799 0.88491112519335224373 0.80722468609837971787 1.2114896676219801819 1.160221368792740293 1.1314614740552098038 1.1314313019025650231 1.1601644810541791308 1.2114179294223719197 0.80729482715838052354 0.74294772393642660724 1.2690799117302582477 1.2567601465222000279 1.2174018630448240064 1.2173513136219595854 1.2566877582770110688 1.2690184884363526763 0.74302332307226870434 0.69828645067704053773 1.299883443454870946 1.3305969488436930614 1.2891996229897622062 1.2891895394644745654 1.3305119829725813307 1.2998724100407410553 0.69830737186506930403 0.66732789423183203059 1.3119651190410055452 1.3824284505809742996 1.3456580185158715235 1.3456899937798185718 1.3824083346459083987 1.3119468159028284671 0.66730455593182369523 0.64462421914506651266 1.3095019688973441596 1.4127656218545545652 1.3837838650834177745 1.3837941080192208698 1.4128252055325307701 1.3094961485478235907 0.64451588185313324342 0.63596850683636529933 1.3082828517656703848 1.4373528777568096437 1.4203158768653716404 1.4204956508063091292 1.4374314093434108486 1.308226706548474283 0.63592319658193063869 0.94804114040280573761 1.0405258766756197986 1.0095149439036203987 1.0080822134577125393 1.0080855780812409961 1.0095168946402430787 1.0403938046420675434 0.94817529374463527247 0.8734805313692857176 1.1173562665162093399 1.0511594925472806938 1.0392656567342912766 1.0392627193486947412 1.0511650232318141551 1.1172277889276349683 0.87362796161698197395 0.78469950397556176291 1.1823841428782164709 1.1314601104597801218 1.1028642544804208026 1.1028279732009147462 1.1314341059304802162 1.1822950031350423217 0.78487572444651987347 0.71839753205146383852 1.2290489539229616511 1.2173978343328151208 1.1787204519960796656 1.1786902339122735661 1.2173701903185669693 1.2289586221614696715 0.71856743469644701605 0.68026382286155495649 1.2594968137989464019 1.2892006649392520057 1.2496532134556523896 1.2496009483154146835 1.2891937574749321449 1.2594181018161754171 0.68036126688088449654 0.65877905071746345467 1.2787359083526605996 1.3456807204381253662 1.3113632911981698559 1.311331995497163394 1.3456367908220050467 1.2787382938554292533 0.65871148473296492476 0.64425072265911897951 1.2866829121329073082 1.3837801799667028835 1.3570992400559960256 1.3571216848964562374 1.3837505177679261248 1.2866722420719627351 0.64399277588770442726 0.64077069140772469069 1.2993076427300018771 1.4204162547532950267 1.4046667348800534469 1.4046001262455038994 1.4204728731564271182 1.2992764299713357445 0.64074881112990600407 0.94817249320637042587 1.0403976975656366033 1.0095131147034630548 1.0080859113588371834 1.0080834500880504478 1.0095110015919686042 1.0405264771676026037 0.94804152234773519936 0.87360773837650995688 1.1172369905766246223 1.0511753576878399841 1.0392586722265804156 1.0392597461060106845 1.0511676844626098859 1.1173648556476789562 0.87345995885686955607 0.78485298626643018594 1.1823084057194179763 1.1314385423859167901 1.102820755648348694 1.102855699125926181 1.1314628187793160929 1.1823944357249203119 0.78467550150022502553 0.71854924255008756351 1.2289858391017665085 1.2173482718420773896 1.1786971510995669643 1.1787255701520562567 1.2173734780927243371 1.2290750394347227381 0.71837625002814942121 0.68033299360163002056 1.2594249990243222559 1.289191083843920671 1.2495946391467442904 1.2496473394190676931 1.2891963667609698252 1.2595008592322591845 0.68023324633471782263 0.65863356988639654155 1.2787242728946386361 1.3456700799417873338 1.3113138388570408921 1.3113423455937542883 1.3457141084791932606 1.2787172782254332404 0.65869929524750114869 0.64382894663786915945 1.2866581331879001215 1.3837985289523113686 1.3571052198242614661 1.3570835186261978045 1.3838220072431508534 1.2866677557782995045 0.64408525475497824253 0.64069921646937300075 1.2994078962347399564 1.420391486346904264 1.4046187927461526446 1.4046818971685939292 1.4203338897538480001 1.2994367273620457404 0.64072226907404572493 0.9503477910742995638 1.0414392159903869128 1.0109922256951204833 1.0095128410143572317 1.009513956642770216 1.010983190562977807 1.0414804009386349204 0.95030567550844302627 0.88490804910765885616 1.1287575043801061359 1.0631449306745754946 1.0511833164079389391 1.0511582664306624579 1.0631560583384283003 1.1287848725862081878 0.88486918031595773737 0.80728907657833348654 1.2114316233535562528 1.1601568017219408002 1.1314393281120775914 1.1314634310854552179 1.1602073525862037773 1.2115017082081622757 0.80721725034019076173 0.74301816052703073545 1.2690236296110894987 1.2566941996666862735 1.2173453821781528017 1.2173911612381749237 1.2567633278822549769 1.2690809920916203968 0.74294175532012407537 0.69829922352449502743 1.2998815103401002435 1.3305166667798788982 1.2891938108883675973 1.2891983124871262412 1.3305972130495273831 1.2998871773439140132 0.69827497536116200916 0.66729263327821963792 1.311965821604900162 1.382423776747281563 1.3456945857674798006 1.3456577156655986638 1.3824334622624818714 1.3119820228845164856 0.6673134308068542353 0.6444920985053886886 1.3095017247164086882 1.4128339182452569478 1.3837965040011701578 1.3837754240778024073 1.4127688731687011447 1.3095009349276762745 0.6445991942953794851 0.6359285247474300018 1.308279601363372624 1.4374066450209603829 1.4204922705103775193 1.4203107555015113128 1.437322696859550053 1.3083351930633873028 0.63597080333114397455 0.97470435371173902439 1.075453815142898284 1.0414384162992027516 1.0403956864419703354 1.0405289437481275439 1.0414785943568465321 1.0754722302049948279 0.9746991109214062643 0.9322200974257379702 1.2003734256078208986 1.1287519731075481566 1.1172176904208406256 1.1173699834334314129 1.1287871967110418847 1.2004545525894778635 0.93218044309834446892 0.83542146156447205652 1.2661813656284470753 1.2114310008915001315 1.1822948066365985831 1.1823939149337234777 1.2114925172044472834 1.2662192765585560394 0.83537247077990017807 0.73839788947989926093 1.278805010239872697 1.2690239460473995425 1.2289812068968533065 1.229060814490149145 1.2690790440763899394 1.2788088636196126568 0.73835403111094122242 0.66652391384153875098 1.2616763396046166701 1.2998740941099766744 1.2594251084462839696 1.2595003133448667842 1.2998910040268945032 1.2616797845475997697 0.66648970412896946236 0.61616033147125959246 1.2319440150579528126 1.3119719449530142796 1.2786848930883143449 1.2787760870449860207 1.311967151051559366 1.2319319952855218858 0.61615572026145404294 0.5812803765443179671 1.1973939120451781992 1.3094934739593595552 1.2866494765574485459 1.286700658670380859 1.3094934679256116095 1.1974166339087970456 0.5812802984128534467 0.57299238418089959435 1.176958763649284645 1.3082813780425137651 1.2992755519133589726 1.2994541522842315562 1.3082962552761134845 1.1769137394914852557 0.5729837836128855999 0.89553440489736269026 0.97470177754942954884 0.95034572879983192362 0.94817394626432260907 0.94804519643026874398 0.95030610536125614818 0.97469850230338583863 0.89552279623326036528 0.74978799597316336811 0.93221921637873816913 0.88490998756874406084 0.8736326478951704777 0.87346269421588451642 0.88486894257945314379 0.9321824120514355938 0.74976353508791782065 0.57018609825230204269 0.8354217517262355619 0.80728991084591728011 0.78483508098773901995 0.78472396687683121375 0.80722862084498303581 0.83537193180120628 0.57014234707791200396 0.43975561082739744734 0.73839650220356400911 0.74301735790133305315 0.71854235348612194301 0.71841104215218865026 0.74295331808128173279 0.73835620208033003742 0.43971510355722503993 0.37032173139811025431 0.66651990896025492539 0.69829785125734911144 0.6803172634466805313 0.68028835285599476013 0.6982919992450505875 0.66649135705759277037 0.37029755616617870961 0.33042582757542843241 0.61615879421901786905 0.66727839449139247918 0.65863335607051520793 0.65879078517668354653 0.66734823566646639392 0.61615302115954428963 0.3303970106518371308 0.30530151487973050672 0.58127905357874365411 0.64448453848443976177 0.64381143348465663667 0.64427940144698614411 0.6446433784295449998 0.58127561827936402583 0.30527015387872724617 0.30096688395422366291 0.57299383212277876787 0.63590009854757423291 0.64064258165199605699 0.64084267864769361989 0.63601671766071432579 0.57297432777326440245 0.30092498762634312115 
        </DataArray>
      </CellData>
      <Points>
        <DataArray Name="m" NumberOfComponents="3" type="Float32" format="ascii">
0 0 0 0.125 0 0 0.25 0 0 0.375 0 0 0.5 0 0 0.625 0 0 0.75 0 0 0.875 0 0 1 0 0 0 0.125 0 0.125 0.125 0 0.25 0.125 0 0.375 0.125 0 0.5 0.125 0 0.625 0.125 0 0.75 0.125 0 0.875 0.125 0 1 0.125 0 0 0.25 0 0.125 0.25 0 0.25 0.25 0 0.375 0.25 0 0.5 0.25 0 0.625 0.25 0 0.75 0.25 0 0.875 0.25 0 1 0.25 0 0 0.375 0 0.125 0.375 0 0.25 0.375 0 0.375 0.375 0 0.5 0.375 0 0.625 0.375 0 0.75 0.375 0 0.875 0.375 0 1 0.375 0 0 0.5 0 0.125 0.5 0 0.25 0.5 0 0.375 0.5 0 0.5 0.5 0 0.625 0.5 0 0.75 0.5 0 0.875 0.5 0 1 0.5 0 0 0.625 0 0.125 0.625 0 0.25 0.625 0 0.375 0.625 0 0.5 0.625 0 0.625 0.625 0 0.75 0.625 0 0.875 0.625 0 1 0.625 0 0 0.75 0 0.125 0.75 0 0.25 0.75 0 0.375 0.75 0 0.5 0.75 0 0.625 0.75 0 0.75 0.75 0 0.875 0.75 0 1 0.75 0 0 0.875 0 0.125 0.875 0 0.25 0.875 0 0.375 0.875 0 0.5 0.875 0 0.625 0.875 0 0.75 0.875 0 0.875 0.875 0 1 0.875 0 0 1 0 0.125 1 0 0.25 1 0 0.375 1 0 0.5 1 0 0.625 1 0 0.75 1 0 0.875 1 0 1 1 0 0 0 0.125 0.125 0 0.125 0.25 0 0.125 0.375 0 0.125 0.5 0 0.125 0.625 0 0.125 0.75 0 0.125 0.875 0 0.125 1 0 0.125 0 0.125 0.125 0.125 0.125 0.125 0.25 0.125 0.125 0.375 0.125 0.125 0.5 0.125 0.125 0.625 0.125 0.125 0.75 0.125 0.125 0.875 0.125 0.125 1 0.125 0.125 0 0.25 0.125 0.125 0.25 0.125 0.25 0.25 0.125 0.375 0.25 0.125 0.5 0.25 0.125 0.625 0.25 0.125 0.75 0.25 0.125 0.875 0.25 0.125 1 0.25 0.125 0 0.375 0.125 0.125 0.375 0.125 0.25 0.375 0.125 0.375 0.375 0.125 0.5 0.375 0.125 0.625 0.375 0.125 0.75 0.375 0.125 0.875 0.375 0.125 1 0.375 0.125 0 0.5 0.125 0.125 0.5 0.125 0.25 0.5 0.125 0.375 0.5 0.125 0.5 0.5 0.125 0.625 0.5 0.125 0.75 0.5 0.125 0.875 0.5 0.125 1 0.5 0.125 0 0.625 0.125 0.125 0.625 0.125 0.25 0.625 0.125 0.375 0.625 0.125 0.5 0.625 0.125 0.625 0.625 0.125 0.75 0.625 0.125 0.875 0.625 0.125 1 0.625 0.125 0 0.75 0.125 0.125 0.75 0.125 0.25 0.75 0.125 0.375 0.75 0.125 0.5 0.75 0.125 0.625 0.75 0.125 0.75 0.75 0.125 0.875 0.75 0.125 1 0.75 0.125 0 0.875 0.125 0.125 0.875 0.125 0.25 0.875 0.125 0.375 0.875 0.125 0.5 0.875 0.125 0.625 0.875 0.125 0.75 0.875 0.125 0.875 0.875 0.125 1 0.875 0.125 0 1 0.125 0.125 1 0.125 0.25 1 0.125 0.375 1 0.125 0.5 1 0.125 0.625 1 0.125 0.75 1 0.125 0.875 1 0.125 1 1 0.125 0 0 0.25 0.125 0 0.25 0.25 0 0.25 0.375 0 0.25 0.5 0 0.25 0.625 0 0.25 0.75 0 0.25 0.875 0 0.25 1 0 0.25 0 0.125 0.25 0.125 0.125 0.25 0.25 0.125 0.25 0.375 0.125 0.25 0.5 0.125 0.25 0.625 0.125 0.25 0.75 0.125 0.25 0.875 0.125 0.25 1 0.125 0.25 0 0.25 0.25 0.125 0.25 0.25 0.25 0.25 0.25 0.375 0.25 0.25 0.5 0.25 0.25 0.625 0.25 0.25 0.75 0.25 0.25 0.875 0.25 0.25 1 0.25 0.25 0 0.375 0.25 0.125 0.375 0.25 0.25 0.375 0.25 0.375 0.375 0.25 0.5 0.375 0.25 0.625 0.375 0.25 0.75 0.375 0.25 0.875 0.375 0.25 1 0.375 0.25 0 0.5 0.25 0.125 0.5 0.25 0.25 0.5 0.25 0.375 0.5 0.25 0.5 0.5 0.25 0.625 0.5 0.25 0.75 0.5 0.25 0.875 0.5 0.25 1 0.5 0.25 0 0.625 0.25 0.125 0.625 0.25 0.25 0.625 0.25 0.375 0.625 0.25 0.5 0.625 0.25 0.625 0.625 0.25 0.75 0.625 0.25 0.875 0.625 0.25 1 0.625 0.25 0 0.75 0.25 0.125 0.75 0.25 0.25 0.75 0.25 0.375 0.75 0.25 0.5 0.75 0.25 0.625 0.75 0.25 0.75 0.75 0.25 0.875 0.75 0.25 1 0.75 0.25 0 0.875 0.25 0.125 0.875 0.25 0.25 0.875 0.25 0.375 0.875 0.25 0.5 0.875 0.25 0.625 0.875 0.25 0.75 0.875 0.25 0.875 0.875 0.25 1 0.875 0.25 0 1 0.25 0.125 1 0.25 0.25 1 0.25 0.375 1 0.25 0.5 1 0.25 0.625 1 0.25 0.75 1 0.25 0.875 1 0.25 1 1 0.25 0 0 0.375 0.125 0 0.375 0.25 0 0.375 0.375 0 0.375 0.5 0 0.375 0.625 0 0.375 0.75 0 0.375 0.875 0 0.375 1 0 0.375 0 0.125 0.375 0.125 0.125 0.375 0.25 0.125 0.375 0.375 0.125 0.375 0.5 0.125 0.375 0.625 0.125 0.375 0.75 0.125 0.375 0.875 0.125 0.375 1 0.125 0.375 0 0.25 0.375 0.125 0.25 0.375 0.25 0.25 0.375 0.375 0.25 0.375 0.5 0.25 0.375 0.625 0.25 0.375 0.75 0.25 0.375 0.875 0.25 0.375 1 0.25 0.375 0 0.375 0.375 0.125 0.375 0.375 0.25 0.375 0.375 0.375 0.375 0.375 0.5 0.375 0.375 0.625 0.375 0.375 0.75 0.375 0.375 0.875 0.375 0.375 1 0.375 0.375 0 0.5 0.375 0.125 0.5 0.375 0.25 0.5 0.375 0.375 0.5 0.375 0.5 0.5 0.375 0.625 0.5 0.375 0.75 0.5 0.375 0.875 0.5 0.375 1 0.5 0.375 0 0.625 0.375 0.125 0.625 0.375 0.25 0.625 0.375 0.375 0.625 0.375 0.5 0.625 0.375 0.625 0.625 0.375 0.75 0.625 0.375 0.875 0.625 0.375 1 0.625 0.375 0 0.75 0.375 0.125 0.75 0.375 0.25 0.75 0.375 0.375 0.75 0.375 0.5 0.75 0.375 0.625 0.75 0.375 0.75 0.75 0.375 0.875 0.75 0.375 1 0.75 0.375 0 0.875 0.375 0.125 0.875 0.375 0.25 0.875 0.375 0.375 0.875 0.375 0.5 0.875 0.375 0.625 0.875 0.375 0.75 0.875 0.375 0.875 0.875 0.375 1 0.875 0.375 0 1 0.375 0.125 1 0.375 0.25 1 0.375 0.375 1 0.375 0.5 1 0.375 0.625 1 0.375 0.75 1 0.375 0.875 1 0.375 1 1 0.375 0 0 0.5 0.125 0 0.5 0.25 0 0.5 0.375 0 0.5 0.5 0 0.5 0.625 0 0.5 0.75 0 0.5 0.875 0 0.5 1 0 0.5 0 0.125 0.5 0.125 0.125 0.5 0.25 0.125 0.5 0.375 0.125 0.5 0.5 0.125 0.5 0.625 0.125 0.5 0.75 0.125 0.5 0.875 0.125 0.5 1 0.125 0.5 0 0.25 0.5 0.125 0.25 0.5 0.25 0.25 0.5 0.375 0.25 0.5 0.5 0.25 0.5 0.625 0.25 0.5 0.75 0.25 0.5 0.875 0.25 0.5 1 0.25 0.5 0 0.375 0.5 0.125 0.375 0.5 0.25 0.375 0.5 0.375 0.375 0.5 0.5 0.375 0.5 0.625 0.375 0.5 0.75 0.375 0.5 0.875 0.375 0.5 1 0.375 0.5 0 0.5 0.5 0.125 0.5 0.5 0.25 0.5 0.5 0.375 0.5 0.5 0.5 0.5 0.5 0.625 0.5 0.5 0.75 0.5 0.5 0.875 0.5 0.5 1 0.5 0.5 0 0.625 0.5 0.125 0.625 0.5 0.25 0.625 0.5 0.375 0.625 0.5 0.5 0.625 0.5 0.625 0.625 0.5 0.75 0.625 0.5 0.875 0.625 0.5 1 0.625 0.5 0 0.75 0.5 0.125 0.75 0.5 0.25 0.75 0.5 0.375 0.75 0.5 0.5 0.75 0.5 0.625 0.75 0.5 0.75 0.75 0.5 0.875 0.75 0.5 1 0.75 0.5 0 0.875 0.5 0.125 0.875 0.5 0.25 0.875 0.5 0.375 0.875 0.5 0.5 0.875 0.5 0.625 0.875 0.5 0.75 0.875 0.5 0.875 0.875 0.5 1 0.875 0.5 0 1 0.5 0.125 1 0.5 0.25 1 0.5 0.375 1 0.5 0.5 1 0.5 0.625 1 0.5 0.75 1 0.5 0.875 1 0.5 1 1 0.5 0 0 0.625 0.125 0 0.625 0.25 0 0.625 0.375 0 0.625 0.5 0 0.625 0.625 0 0.625 0.75 0 0.625 0.875 0 0.625 1 0 0.625 0 0.125 0.625 0.125 0.125 0.625 0.25 0.125 0.625 0.375 0.125 0.625 0.5 0.125 0.625 0.625 0.125 0.625 0.75 0.125 0.625 0.875 0.125 0.625 1 0.125 0.625 0 0.25 0.625 0.125 0.25 0.625 0.25 0.25 0.625 0.375 0.25 0.625 0.5 0.25 0.625 0.625 0.25 0.625 0.75 0.25 0.625 0.875 0.25 0.625 1 0.25 0.625 0 0.375 0.625 0.125 0.375 0.625 0.25 0.375 0.625 0.375 0.375 0.625 0.5 0.375 0.625 0.625 0.375 0.625 0.75 0.375 0.625 0.875 0.375 0.625 1 0.375 0.625 0 0.5 0.625 0.125 0.5 0.625 0.25 0.5 0.625 0.375 0.5 0.625 0.5 0.5 0.625 0.625 0.5 0.625 0.75 0.5 0.625 0.875 0.5 0.625 1 0.5 0.625 0 0.625 0.625 0.125 0.625 0.625 0.25 0.625 0.625 0.375 0.625 0.625 0.5 0.625 0.625 0.625 0.625 0.625 0.75 0.625 0.625 0.875 0.625 0.625 1 0.625 0.625 0 0.75 0.625 0.125 0.75 0.625 0.25 0.75 0.625 0.375 0.75 0.625 0.5 0.75 0.625 0.625 0.75 0.625 0.75 0.75 0.625 0.875 0.75 0.625 1 0.75 0.625 0 0.875 0.625 0.125 0.875 0.625 0.25 0.875 0.625 0.375 0.875 0.625 0.5 0.875 0.625 0.625 0.875 0.625 0.75 0.875 0.625 0.875 0.875 0.625 1 0.875 0.625 0 1 0.625 0.125 1 0.625 0.25 1 0.625 0.375 1 0.625 0.5 1 0.625 0.625 1 0.625 0.75 1 0.625 0.875 1 0.625 1 1 0.625 0 0 0.75 0.125 0 0.75 0.25 0 0.75 0.375 0 0.75 0.5 0 0.75 0.625 0 0.75 0.75 0 0.75 0.875 0 0.75 1 0 0.75 0 0.125 0.75 0.125 0.125 0.75 0.25 0.125 0.75 0.375 0.125 0.75 0.5 0.125 0.75 0.625 0.125 0.75 0.75 0.125 0.75 0.875 0.125 0.75 1 0.125 0.75 0 0.25 0.75 0.125 0.25 0.75 0.25 0.25 0.75 0.375 0.25 0.75 0.5 0.25 0.75 0.625 0.25 0.75 0.75 0.25 0.75 0.875 0.25 0.75 1 0.25 0.75 0 0.375 0.75 0.125 0.375 0.75 0.25 0.375 0.75 0.375 0.375 0.75 0.5 0.375 0.75 0.625 0.375 0.75 0.75 0.375 0.75 0.875 0.375 0.75 1 0.375 0.75 0 0.5 0.75 0.125 0.5 0.75 0.25 0.5 0.75 0.375 0.5 0.75 0.5 0.5 0.75 0.625 0.5 0.75 0.75 0.5 0.75 0.875 0.5 0.75 1 0.5 0.75 0 0.625 0.75 0.125 0.625 0.75 0.25 0.625 0.75 0.375 0.625 0.75 0.5 0.625 0.75 0.625 0.625 0.75 0.75 0.625 0.75 0.875 0.625 0.75 1 0.625 0.75 0 0.75 0.75 0.125 0.75 0.75 0.25 0.75 0.75 0.375 0.75 0.75 0.5 0.75 0.75 0.625 0.75 0.75 0.75 0.75 0.75 0.875 0.75 0.75 1 0.75 0.75 0 0.875 0.75 0.125 0.875 0.75 0.25 0.875 0.75 0.375 0.875 0.75 0.5 0.875 0.75 0.625 0.875 0.75 0.75 0.875 0.75 0.875 0.875 0.75 1 0.875 0.75 0 1 0.75 0.125 1 0.75 0.25 1 0.75 0.375 1 0.75 0.5 1 0.75 0.625 1 0.75 0.75 1 0.75 0.875 1 0.75 1 1 0.75 0 0 0.875 0.125 0 0.875 0.25 0 0.875 0.375 0 0.875 0.5 0 0.875 0.625 0 0.875 0.75 0 0.875 0.875 0 0.875 1 0 0.875 0 0.125 0.875 0.125 0.125 0.875 0.25 0.125 0.875 0.375 0.125 0.875 0.5 0.125 0.875 0.625 0.125 0.875 0.75 0.125 0.875 0.875 0.125 0.875 1 0.125 0.875 0 0.25 0.875 0.125 0.25 0.875 0.25 0.25 0.875 0.375 0.25 0.875 0.5 0.25 0.875 0.625 0.25 0.875 0.75 0.25 0.875 0.875 0.25 0.875 1 0.25 0.875 0 0.375 0.875 0.125 0.375 0.875 0.25 0.375 0.875 0.375 0.375 0.875 0.5 0.375 0.875 0.625 0.375 0.875 0.75 0.375 0.875 0.875 0.375 0.875 1 0.375 0.875 0 0.5 0.875 0.125 0.5 0.875 0.25 0.5 0.875 0.375 0.5 0.875 0.5 0.5 0.875 0.625 0.5 0.875 0.75 0.5 0.875 0.875 0.5 0.875 1 0.5 0.875 0 0.625 0.875 0.125 0.625 0.875 0.25 0.625 0.875 0.375 0.625 0.875 0.5 0.625 0.875 0.625 0.625 0.875 0.75 0.625 0.875 0.875 0.625 0.875 1 0.625 0.875 0 0.75 0.875 0.125 0.75 0.875 0.25 0.75 0.875 0.375 0.75 0.875 0.5 0.75 0.875 0.625 0.75 0.875 0.75 0.75 0.875 0.875 0.75 0.875 1 0.75 0.875 0 0.875 0.875 0.125 0.875 0.875 0.25 0.875 0.875 0.375 0.875 0.875 0.5 0.875 0.875 0.625 0.875 0.875 0.75 0.875 0.875 0.875 0.875 0.875 1 0.875 0.875 0 1 0.875 0.125 1 0.875 0.25 1 0.875 0.375 1 0.875 0.5 1 0.875 0.625 1 0.875 0.75 1 0.875 0.875 1 0.875 1 1 0.875 0 0 1 0.125 0 1 0.25 0 1 0.375 0 1 0.5 0 1 0.625 0 1 0.75 0 1 0.875 0 1 1 0 1 0 0.125 1 0.125 0.125 1 0.25 0.125 1 0.375 0.125 1 0.5 0.125 1 0.625 0.125 1 0.75 0.125 1 0.875 0.125 1 1 0.125 1 0 0.25 1 0.125 0.25 1 0.25 0.25 1 0.375 0.25 1 0.5 0.25 1 0.625 0.25 1 0.75 0.25 1 0.875 0.25 1 1 0.25 1 0 0.375 1 0.125 0.375 1 0.25 0.375 1 0.375 0.375 1 0.5 0.375 1 0.625 0.375 1 0.75 0.375 1 0.875 0.375 1 1 0.375 1 0 0.5 1 0.125 0.5 1 0.25 0.5 1 0.375 0.5 1 0.5 0.5 1 0.625 0.5 1 0.75 0.5 1 0.875 0.5 1 1 0.5 1 0 0.625 1 0.125 0.625 1 0.25 0.625 1 0.375 0.625 1 0.5 0.625 1 0.625 0.625 1 0.75 0.625 1 0.875 0.625 1 1 0.625 1 0 0.75 1 0.125 0.75 1 0.25 0.75 1 0.375 0.75 1 0.5 0.75 1 0.625 0.75 1 0.75 0.75 1 0.875 0.75 1 1 0.75 1 0 0.875 1 0.125 0.875 1 0.25 0.875 1 0.375 0.875 1 0.5 0.875 1 0.625 0.875 1 0.75 0.875 1 0.875 0.875 1 1 0.875 1 0 1 1 0.125 1 1 0.25 1 1 0.375 1 1 0.5 1 1 0.625 1 1 0.75 1 1 0.875 1 1 1 1 1         </DataArray>
      </Points>
    </Piece>
  </StructuredGrid>
</VTKFile>
