<?xml version="1.0"?>
<VTKFile type="StructuredGrid" version="0.1" byte_order="LittleEndian">
  <StructuredGrid WholeExtent="0 8 0 8 0 8">
    <Piece Extent="0 8 0 8 0 8">
      <PointData>
      </PointData>
      <CellData>
        <DataArray Name="vx" NumberOfComponents="1" type="Float32" format="ascii">
0.9881670273457160425 0.9881670273457160425 0.9881670273457160425 0.9881670273457160425 0.9881670273457160425 0.9881670273457160425 0.9881670273457160425 0.9881670273457160425 0.96516574653097253478 0.96516574653097253478 0.96516574653097253478 0.96516574653097253478 0.96516574653097253478 0.96516574653097253478 0.96516574653097253478 0.96516574653097253478 0.94293872551676582994 0.94293872551676582994 0.94293872551676582994 0.94293872551676582994 0.94293872551676582994 0.94293872551676582994 0.94293872551676582994 0.94293872551676582994 0.9230713514981473411 0.9230713514981473411 0.9230713514981473411 0.9230713514981473411 0.9230713514981473411 0.9230713514981473411 0.9230713514981473411 0.9230713514981473411 0.90619594930015912038 0.90619594930015912038 0.90619594930015912038 0.90619594930015912038 0.90619594930015912038 0.90619594930015912038 0.90619594930015912038 0.90619594930015912038 0.89330674711730595483 0.89330674711730595483 0.89330674711730595483 0.89330674711730595483 0.89330674711730595483 0.89330674711730595483 0.89330674711730595483 0.89330674711730595483 0.88424143027676516127 0.88424143027676516127 0.88424143027676516127 0.88424143027676516127 0.88424143027676516127 0.88424143027676516127 0.88424143027676516127 0.88424143027676516127 0.87937170920146789932 0.87937170920146789932 0.87937170920146789932 0.87937170920146789932 0.87937170920146789932 0.87937170920146789932 0.87937170920146789932 0.87937170920146789932 0.9881670273457160425 0.9881670273457160425 0.9881670273457160425 0.9881670273457160425 0.9881670273457160425 0.9881670273457160425 0.9881670273457160425 0.9881670273457160425 0.96516574653097253478 0.96516574653097253478 0.96516574653097253478 0.96516574653097253478 0.96516574653097253478 0.96516574653097253478 0.96516574653097253478 0.96516574653097253478 0.94293872551676582994 0.94293872551676582994 0.94293872551676582994 0.94293872551676582994 0.94293872551676582994 0.94293872551676582994 0.94293872551676582994 0.94293872551676582994 0.9230713514981473411 0.9230713514981473411 0.9230713514981473411 0.9230713514981473411 0.9230713514981473411 0.9230713514981473411 0.9230713514981473411 0.9230713514981473411 0.90619594930015912038 0.90619594930015912038 0.90619594930015912038 0.90619594930015912038 0.90619594930015912038 0.90619594930015912038 0.90619594930015912038 0.90619594930015912038 0.89330674711730595483 0.89330674711730595483 0.89330674711730595483 0.89330674711730595483 0.89330674711730595483 0.89330674711730595483 0.89330674711730595483 0.89330674711730595483 0.88424143027676516127 0.88424143027676516127 0.88424143027676516127 0.88424143027676516127 0.88424143027676516127 0.88424143027676516127 0.88424143027676516127 0.88424143027676516127 0.87937170920146789932 0.87937170920146789932 0.87937170920146789932 0.87937170920146789932 0.87937170920146789932 0.87937170920146789932 0.87937170920146789932 0.87937170920146789932 0.9881670273457160425 0.9881670273457160425 0.9881670273457160425 0.9881670273457160425 0.9881670273457160425 0.9881670273457160425 0.9881670273457160425 0.9881670273457160425 0.96516574653097253478 0.96516574653097253478 0.96516574653097253478 0.96516574653097253478 0.96516574653097253478 0.96516574653097253478 0.96516574653097253478 0.96516574653097253478 0.94293872551676582994 0.94293872551676582994 0.94293872551676582994 0.94293872551676582994 0.94293872551676582994 0.94293872551676582994 0.94293872551676582994 0.94293872551676582994 0.9230713514981473411 0.9230713514981473411 0.9230713514981473411 0.9230713514981473411 0.9230713514981473411 0.9230713514981473411 0.9230713514981473411 0.9230713514981473411 0.90619594930015912038 0.90619594930015912038 0.90619594930015912038 0.90619594930015912038 0.90619594930015912038 0.90619594930015912038 0.90619594930015912038 0.90619594930015912038 0.89330674711730595483 0.89330674711730595483 0.89330674711730595483 0.89330674711730595483 0.89330674711730595483 0.89330674711730595483 0.89330674711730595483 0.89330674711730595483 0.88424143027676516127 0.88424143027676516127 0.88424143027676516127 0.88424143027676516127 0.88424143027676516127 0.88424143027676516127 0.88424143027676516127 0.88424143027676516127 0.87937170920146789932 0.87937170920146789932 0.87937170920146789932 0.87937170920146789932 0.87937170920146789932 0.87937170920146789932 0.87937170920146789932 0.87937170920146789932 0.9881670273457160425 0.9881670273457160425 0.9881670273457160425 0.9881670273457160425 0.9881670273457160425 0.9881670273457160425 0.9881670273457160425 0.9881670273457160425 0.96516574653097253478 0.96516574653097253478 0.96516574653097253478 0.96516574653097253478 0.96516574653097253478 0.96516574653097253478 0.96516574653097253478 0.96516574653097253478 0.94293872551676582994 0.94293872551676582994 0.94293872551676582994 0.94293872551676582994 0.94293872551676582994 0.94293872551676582994 0.94293872551676582994 0.94293872551676582994 0.9230713514981473411 0.9230713514981473411 0.9230713514981473411 0.9230713514981473411 0.9230713514981473411 0.9230713514981473411 0.9230713514981473411 0.9230713514981473411 0.90619594930015912038 0.90619594930015912038 0.90619594930015912038 0.90619594930015912038 0.90619594930015912038 0.90619594930015912038 0.90619594930015912038 0.90619594930015912038 0.89330674711730595483 0.89330674711730595483 0.89330674711730595483 0.89330674711730595483 0.89330674711730595483 0.89330674711730595483 0.89330674711730595483 0.89330674711730595483 0.88424143027676516127 0.88424143027676516127 0.88424143027676516127 0.88424143027676516127 0.88424143027676516127 0.88424143027676516127 0.88424143027676516127 0.88424143027676516127 0.87937170920146789932 0.87937170920146789932 0.87937170920146789932 0.87937170920146789932 0.87937170920146789932 0.87937170920146789932 0.87937170920146789932 0.87937170920146789932 0.9881670273457160425 0.9881670273457160425 0.9881670273457160425 0.9881670273457160425 0.9881670273457160425 0.9881670273457160425 0.9881670273457160425 0.9881670273457160425 0.96516574653097253478 0.96516574653097253478 0.96516574653097253478 0.96516574653097253478 0.96516574653097253478 0.96516574653097253478 0.96516574653097253478 0.96516574653097253478 0.94293872551676582994 0.94293872551676582994 0.94293872551676582994 0.94293872551676582994 0.94293872551676582994 0.94293872551676582994 0.94293872551676582994 0.94293872551676582994 0.9230713514981473411 0.9230713514981473411 0.9230713514981473411 0.9230713514981473411 0.9230713514981473411 0.9230713514981473411 0.9230713514981473411 0.9230713514981473411 0.90619594930015912038 0.90619594930015912038 0.90619594930015912038 0.90619594930015912038 0.90619594930015912038 0.90619594930015912038 0.90619594930015912038 0.90619594930015912038 0.89330674711730595483 0.89330674711730595483 0.89330674711730595483 0.89330674711730595483 0.89330674711730595483 0.89330674711730595483 0.89330674711730595483 0.89330674711730595483 0.88424143027676516127 0.88424143027676516127 0.88424143027676516127 0.88424143027676516127 0.88424143027676516127 0.88424143027676516127 0.88424143027676516127 0.88424143027676516127 0.87937170920146789932 0.87937170920146789932 0.87937170920146789932 0.87937170920146789932 0.87937170920146789932 0.87937170920146789932 0.87937170920146789932 0.87937170920146789932 0.9881670273457160425 0.9881670273457160425 0.9881670273457160425 0.9881670273457160425 0.9881670273457160425 0.9881670273457160425 0.9881670273457160425 0.9881670273457160425 0.96516574653097253478 0.96516574653097253478 0.96516574653097253478 0.96516574653097253478 0.96516574653097253478 0.96516574653097253478 0.96516574653097253478 0.96516574653097253478 0.94293872551676582994 0.94293872551676582994 0.94293872551676582994 0.94293872551676582994 0.94293872551676582994 0.94293872551676582994 0.94293872551676582994 0.94293872551676582994 0.9230713514981473411 0.9230713514981473411 0.9230713514981473411 0.9230713514981473411 0.9230713514981473411 0.9230713514981473411 0.9230713514981473411 0.9230713514981473411 0.90619594930015912038 0.90619594930015912038 0.90619594930015912038 0.90619594930015912038 0.90619594930015912038 0.90619594930015912038 0.90619594930015912038 0.90619594930015912038 0.89330674711730595483 0.89330674711730595483 0.89330674711730595483 0.89330674711730595483 0.89330674711730595483 0.89330674711730595483 0.89330674711730595483 0.89330674711730595483 0.88424143027676516127 0.88424143027676516127 0.88424143027676516127 0.88424143027676516127 0.88424143027676516127 0.88424143027676516127 0.88424143027676516127 0.88424143027676516127 0.87937170920146789932 0.87937170920146789932 0.87937170920146789932 0.87937170920146789932 0.87937170920146789932 0.87937170920146789932 0.87937170920146789932 0.87937170920146789932 0.9881670273457160425 0.9881670273457160425 0.9881670273457160425 0.9881670273457160425 0.9881670273457160425 0.9881670273457160425 0.9881670273457160425 0.9881670273457160425 0.96516574653097253478 0.96516574653097253478 0.96516574653097253478 0.96516574653097253478 0.96516574653097253478 0.96516574653097253478 0.96516574653097253478 0.96516574653097253478 0.94293872551676582994 0.94293872551676582994 0.94293872551676582994 0.94293872551676582994 0.94293872551676582994 0.94293872551676582994 0.94293872551676582994 0.94293872551676582994 0.9230713514981473411 0.9230713514981473411 0.9230713514981473411 0.9230713514981473411 0.9230713514981473411 0.9230713514981473411 0.9230713514981473411 0.9230713514981473411 0.90619594930015912038 0.90619594930015912038 0.90619594930015912038 0.90619594930015912038 0.90619594930015912038 0.90619594930015912038 0.90619594930015912038 0.90619594930015912038 0.89330674711730595483 0.89330674711730595483 0.89330674711730595483 0.89330674711730595483 0.89330674711730595483 0.89330674711730595483 0.89330674711730595483 0.89330674711730595483 0.88424143027676516127 0.88424143027676516127 0.88424143027676516127 0.88424143027676516127 0.88424143027676516127 0.88424143027676516127 0.88424143027676516127 0.88424143027676516127 0.87937170920146789932 0.87937170920146789932 0.87937170920146789932 0.87937170920146789932 0.87937170920146789932 0.87937170920146789932 0.87937170920146789932 0.87937170920146789932 0.9881670273457160425 0.9881670273457160425 0.9881670273457160425 0.9881670273457160425 0.9881670273457160425 0.9881670273457160425 0.9881670273457160425 0.9881670273457160425 0.96516574653097253478 0.96516574653097253478 0.96516574653097253478 0.96516574653097253478 0.96516574653097253478 0.96516574653097253478 0.96516574653097253478 0.96516574653097253478 0.94293872551676582994 0.94293872551676582994 0.94293872551676582994 0.94293872551676582994 0.94293872551676582994 0.94293872551676582994 0.94293872551676582994 0.94293872551676582994 0.9230713514981473411 0.9230713514981473411 0.9230713514981473411 0.9230713514981473411 0.9230713514981473411 0.9230713514981473411 0.9230713514981473411 0.9230713514981473411 0.90619594930015912038 0.90619594930015912038 0.90619594930015912038 0.90619594930015912038 0.90619594930015912038 0.90619594930015912038 0.90619594930015912038 0.90619594930015912038 0.89330674711730595483 0.89330674711730595483 0.89330674711730595483 0.89330674711730595483 0.89330674711730595483 0.89330674711730595483 0.89330674711730595483 0.89330674711730595483 0.88424143027676516127 0.88424143027676516127 0.88424143027676516127 0.88424143027676516127 0.88424143027676516127 0.88424143027676516127 0.88424143027676516127 0.88424143027676516127 0.87937170920146789932 0.87937170920146789932 0.87937170920146789932 0.87937170920146789932 0.87937170920146789932 0.87937170920146789932 0.87937170920146789932 0.87937170920146789932 
        </DataArray>
      </CellData>
      <Points>
        <DataArray Name="m" NumberOfComponents="3" type="Float32" format="ascii">
0 0 0 0.125 0 0 0.25 0 0 0.375 0 0 0.5 0 0 0.625 0 0 0.75 0 0 0.875 0 0 1 0 0 0 0.125 0 0.125 0.125 0 0.25 0.125 0 0.375 0.125 0 0.5 0.125 0 0.625 0.125 0 0.75 0.125 0 0.875 0.125 0 1 0.125 0 0 0.25 0 0.125 0.25 0 0.25 0.25 0 0.375 0.25 0 0.5 0.25 0 0.625 0.25 0 0.75 0.25 0 0.875 0.25 0 1 0.25 0 0 0.375 0 0.125 0.375 0 0.25 0.375 0 0.375 0.375 0 0.5 0.375 0 0.625 0.375 0 0.75 0.375 0 0.875 0.375 0 1 0.375 0 0 0.5 0 0.125 0.5 0 0.25 0.5 0 0.375 0.5 0 0.5 0.5 0 0.625 0.5 0 0.75 0.5 0 0.875 0.5 0 1 0.5 0 0 0.625 0 0.125 0.625 0 0.25 0.625 0 0.375 0.625 0 0.5 0.625 0 0.625 0.625 0 0.75 0.625 0 0.875 0.625 0 1 0.625 0 0 0.75 0 0.125 0.75 0 0.25 0.75 0 0.375 0.75 0 0.5 0.75 0 0.625 0.75 0 0.75 0.75 0 0.875 0.75 0 1 0.75 0 0 0.875 0 0.125 0.875 0 0.25 0.875 0 0.375 0.875 0 0.5 0.875 0 0.625 0.875 0 0.75 0.875 0 0.875 0.875 0 1 0.875 0 0 1 0 0.125 1 0 0.25 1 0 0.375 1 0 0.5 1 0 0.625 1 0 0.75 1 0 0.875 1 0 1 1 0 0 0 0.125 0.125 0 0.125 0.25 0 0.125 0.375 0 0.125 0.5 0 0.125 0.625 0 0.125 0.75 0 0.125 0.875 0 0.125 1 0 0.125 0 0.125 0.125 0.125 0.125 0.125 0.25 0.125 0.125 0.375 0.125 0.125 0.5 0.125 0.125 0.625 0.125 0.125 0.75 0.125 0.125 0.875 0.125 0.125 1 0.125 0.125 0 0.25 0.125 0.125 0.25 0.125 0.25 0.25 0.125 0.375 0.25 0.125 0.5 0.25 0.125 0.625 0.25 0.125 0.75 0.25 0.125 0.875 0.25 0.125 1 0.25 0.125 0 0.375 0.125 0.125 0.375 0.125 0.25 0.375 0.125 0.375 0.375 0.125 0.5 0.375 0.125 0.625 0.375 0.125 0.75 0.375 0.125 0.875 0.375 0.125 1 0.375 0.125 0 0.5 0.125 0.125 0.5 0.125 0.25 0.5 0.125 0.375 0.5 0.125 0.5 0.5 0.125 0.625 0.5 0.125 0.75 0.5 0.125 0.875 0.5 0.125 1 0.5 0.125 0 0.625 0.125 0.125 0.625 0.125 0.25 0.625 0.125 0.375 0.625 0.125 0.5 0.625 0.125 0.625 0.625 0.125 0.75 0.625 0.125 0.875 0.625 0.125 1 0.625 0.125 0 0.75 0.125 0.125 0.75 0.125 0.25 0.75 0.125 0.375 0.75 0.125 0.5 0.75 0.125 0.625 0.75 0.125 0.75 0.75 0.125 0.875 0.75 0.125 1 0.75 0.125 0 0.875 0.125 0.125 0.875 0.125 0.25 0.875 0.125 0.375 0.875 0.125 0.5 0.875 0.125 0.625 0.875 0.125 0.75 0.875 0.125 0.875 0.875 0.125 1 0.875 0.125 0 1 0.125 0.125 1 0.125 0.25 1 0.125 0.375 1 0.125 0.5 1 0.125 0.625 1 0.125 0.75 1 0.125 0.875 1 0.125 1 1 0.125 0 0 0.25 0.125 0 0.25 0.25 0 0.25 0.375 0 0.25 0.5 0 0.25 0.625 0 0.25 0.75 0 0.25 0.875 0 0.25 1 0 0.25 0 0.125 0.25 0.125 0.125 0.25 0.25 0.125 0.25 0.375 0.125 0.25 0.5 0.125 0.25 0.625 0.125 0.25 0.75 0.125 0.25 0.875 0.125 0.25 1 0.125 0.25 0 0.25 0.25 0.125 0.25 0.25 0.25 0.25 0.25 0.375 0.25 0.25 0.5 0.25 0.25 0.625 0.25 0.25 0.75 0.25 0.25 0.875 0.25 0.25 1 0.25 0.25 0 0.375 0.25 0.125 0.375 0.25 0.25 0.375 0.25 0.375 0.375 0.25 0.5 0.375 0.25 0.625 0.375 0.25 0.75 0.375 0.25 0.875 0.375 0.25 1 0.375 0.25 0 0.5 0.25 0.125 0.5 0.25 0.25 0.5 0.25 0.375 0.5 0.25 0.5 0.5 0.25 0.625 0.5 0.25 0.75 0.5 0.25 0.875 0.5 0.25 1 0.5 0.25 0 0.625 0.25 0.125 0.625 0.25 0.25 0.625 0.25 0.375 0.625 0.25 0.5 0.625 0.25 0.625 0.625 0.25 0.75 0.625 0.25 0.875 0.625 0.25 1 0.625 0.25 0 0.75 0.25 0.125 0.75 0.25 0.25 0.75 0.25 0.375 0.75 0.25 0.5 0.75 0.25 0.625 0.75 0.25 0.75 0.75 0.25 0.875 0.75 0.25 1 0.75 0.25 0 0.875 0.25 0.125 0.875 0.25 0.25 0.875 0.25 0.375 0.875 0.25 0.5 0.875 0.25 0.625 0.875 0.25 0.75 0.875 0.25 0.875 0.875 0.25 1 0.875 0.25 0 1 0.25 0.125 1 0.25 0.25 1 0.25 0.375 1 0.25 0.5 1 0.25 0.625 1 0.25 0.75 1 0.25 0.875 1 0.25 1 1 0.25 0 0 0.375 0.125 0 0.375 0.25 0 0.375 0.375 0 0.375 0.5 0 0.375 0.625 0 0.375 0.75 0 0.375 0.875 0 0.375 1 0 0.375 0 0.125 0.375 0.125 0.125 0.375 0.25 0.125 0.375 0.375 0.125 0.375 0.5 0.125 0.375 0.625 0.125 0.375 0.75 0.125 0.375 0.875 0.125 0.375 1 0.125 0.375 0 0.25 0.375 0.125 0.25 0.375 0.25 0.25 0.375 0.375 0.25 0.375 0.5 0.25 0.375 0.625 0.25 0.375 0.75 0.25 0.375 0.875 0.25 0.375 1 0.25 0.375 0 0.375 0.375 0.125 0.375 0.375 0.25 0.375 0.375 0.375 0.375 0.375 0.5 0.375 0.375 0.625 0.375 0.375 0.75 0.375 0.375 0.875 0.375 0.375 1 0.375 0.375 0 0.5 0.375 0.125 0.5 0.375 0.25 0.5 0.375 0.375 0.5 0.375 0.5 0.5 0.375 0.625 0.5 0.375 0.75 0.5 0.375 0.875 0.5 0.375 1 0.5 0.375 0 0.625 0.375 0.125 0.625 0.375 0.25 0.625 0.375 0.375 0.625 0.375 0.5 0.625 0.375 0.625 0.625 0.375 0.75 0.625 0.375 0.875 0.625 0.375 1 0.625 0.375 0 0.75 0.375 0.125 0.75 0.375 0.25 0.75 0.375 0.375 0.75 0.375 0.5 0.75 0.375 0.625 0.75 0.375 0.75 0.75 0.375 0.875 0.75 0.375 1 0.75 0.375 0 0.875 0.375 0.125 0.875 0.375 0.25 0.875 0.375 0.375 0.875 0.375 0.5 0.875 0.375 0.625 0.875 0.375 0.75 0.875 0.375 0.875 0.875 0.375 1 0.875 0.375 0 1 0.375 0.125 1 0.375 0.25 1 0.375 0.375 1 0.375 0.5 1 0.375 0.625 1 0.375 0.75 1 0.375 0.875 1 0.375 1 1 0.375 0 0 0.5 0.125 0 0.5 0.25 0 0.5 0.375 0 0.5 0.5 0 0.5 0.625 0 0.5 0.75 0 0.5 0.875 0 0.5 1 0 0.5 0 0.125 0.5 0.125 0.125 0.5 0.25 0.125 0.5 0.375 0.125 0.5 0.5 0.125 0.5 0.625 0.125 0.5 0.75 0.125 0.5 0.875 0.125 0.5 1 0.125 0.5 0 0.25 0.5 0.125 0.25 0.5 0.25 0.25 0.5 0.375 0.25 0.5 0.5 0.25 0.5 0.625 0.25 0.5 0.75 0.25 0.5 0.875 0.25 0.5 1 0.25 0.5 0 0.375 0.5 0.125 0.375 0.5 0.25 0.375 0.5 0.375 0.375 0.5 0.5 0.375 0.5 0.625 0.375 0.5 0.75 0.375 0.5 0.875 0.375 0.5 1 0.375 0.5 0 0.5 0.5 0.125 0.5 0.5 0.25 0.5 0.5 0.375 0.5 0.5 0.5 0.5 0.5 0.625 0.5 0.5 0.75 0.5 0.5 0.875 0.5 0.5 1 0.5 0.5 0 0.625 0.5 0.125 0.625 0.5 0.25 0.625 0.5 0.375 0.625 0.5 0.5 0.625 0.5 0.625 0.625 0.5 0.75 0.625 0.5 0.875 0.625 0.5 1 0.625 0.5 0 0.75 0.5 0.125 0.75 0.5 0.25 0.75 0.5 0.375 0.75 0.5 0.5 0.75 0.5 0.625 0.75 0.5 0.75 0.75 0.5 0.875 0.75 0.5 1 0.75 0.5 0 0.875 0.5 0.125 0.875 0.5 0.25 0.875 0.5 0.375 0.875 0.5 0.5 0.875 0.5 0.625 0.875 0.5 0.75 0.875 0.5 0.875 0.875 0.5 1 0.875 0.5 0 1 0.5 0.125 1 0.5 0.25 1 0.5 0.375 1 0.5 0.5 1 0.5 0.625 1 0.5 0.75 1 0.5 0.875 1 0.5 1 1 0.5 0 0 0.625 0.125 0 0.625 0.25 0 0.625 0.375 0 0.625 0.5 0 0.625 0.625 0 0.625 0.75 0 0.625 0.875 0 0.625 1 0 0.625 0 0.125 0.625 0.125 0.125 0.625 0.25 0.125 0.625 0.375 0.125 0.625 0.5 0.125 0.625 0.625 0.125 0.625 0.75 0.125 0.625 0.875 0.125 0.625 1 0.125 0.625 0 0.25 0.625 0.125 0.25 0.625 0.25 0.25 0.625 0.375 0.25 0.625 0.5 0.25 0.625 0.625 0.25 0.625 0.75 0.25 0.625 0.875 0.25 0.625 1 0.25 0.625 0 0.375 0.625 0.125 0.375 0.625 0.25 0.375 0.625 0.375 0.375 0.625 0.5 0.375 0.625 0.625 0.375 0.625 0.75 0.375 0.625 0.875 0.375 0.625 1 0.375 0.625 0 0.5 0.625 0.125 0.5 0.625 0.25 0.5 0.625 0.375 0.5 0.625 0.5 0.5 0.625 0.625 0.5 0.625 0.75 0.5 0.625 0.875 0.5 0.625 1 0.5 0.625 0 0.625 0.625 0.125 0.625 0.625 0.25 0.625 0.625 0.375 0.625 0.625 0.5 0.625 0.625 0.625 0.625 0.625 0.75 0.625 0.625 0.875 0.625 0.625 1 0.625 0.625 0 0.75 0.625 0.125 0.75 0.625 0.25 0.75 0.625 0.375 0.75 0.625 0.5 0.75 0.625 0.625 0.75 0.625 0.75 0.75 0.625 0.875 0.75 0.625 1 0.75 0.625 0 0.875 0.625 0.125 0.875 0.625 0.25 0.875 0.625 0.375 0.875 0.625 0.5 0.875 0.625 0.625 0.875 0.625 0.75 0.875 0.625 0.875 0.875 0.625 1 0.875 0.625 0 1 0.625 0.125 1 0.625 0.25 1 0.625 0.375 1 0.625 0.5 1 0.625 0.625 1 0.625 0.75 1 0.625 0.875 1 0.625 1 1 0.625 0 0 0.75 0.125 0 0.75 0.25 0 0.75 0.375 0 0.75 0.5 0 0.75 0.625 0 0.75 0.75 0 0.75 0.875 0 0.75 1 0 0.75 0 0.125 0.75 0.125 0.125 0.75 0.25 0.125 0.75 0.375 0.125 0.75 0.5 0.125 0.75 0.625 0.125 0.75 0.75 0.125 0.75 0.875 0.125 0.75 1 0.125 0.75 0 0.25 0.75 0.125 0.25 0.75 0.25 0.25 0.75 0.375 0.25 0.75 0.5 0.25 0.75 0.625 0.25 0.75 0.75 0.25 0.75 0.875 0.25 0.75 1 0.25 0.75 0 0.375 0.75 0.125 0.375 0.75 0.25 0.375 0.75 0.375 0.375 0.75 0.5 0.375 0.75 0.625 0.375 0.75 0.75 0.375 0.75 0.875 0.375 0.75 1 0.375 0.75 0 0.5 0.75 0.125 0.5 0.75 0.25 0.5 0.75 0.375 0.5 0.75 0.5 0.5 0.75 0.625 0.5 0.75 0.75 0.5 0.75 0.875 0.5 0.75 1 0.5 0.75 0 0.625 0.75 0.125 0.625 0.75 0.25 0.625 0.75 0.375 0.625 0.75 0.5 0.625 0.75 0.625 0.625 0.75 0.75 0.625 0.75 0.875 0.625 0.75 1 0.625 0.75 0 0.75 0.75 0.125 0.75 0.75 0.25 0.75 0.75 0.375 0.75 0.75 0.5 0.75 0.75 0.625 0.75 0.75 0.75 0.75 0.75 0.875 0.75 0.75 1 0.75 0.75 0 0.875 0.75 0.125 0.875 0.75 0.25 0.875 0.75 0.375 0.875 0.75 0.5 0.875 0.75 0.625 0.875 0.75 0.75 0.875 0.75 0.875 0.875 0.75 1 0.875 0.75 0 1 0.75 0.125 1 0.75 0.25 1 0.75 0.375 1 0.75 0.5 1 0.75 0.625 1 0.75 0.75 1 0.75 0.875 1 0.75 1 1 0.75 0 0 0.875 0.125 0 0.875 0.25 0 0.875 0.375 0 0.875 0.5 0 0.875 0.625 0 0.875 0.75 0 0.875 0.875 0 0.875 1 0 0.875 0 0.125 0.875 0.125 0.125 0.875 0.25 0.125 0.875 0.375 0.125 0.875 0.5 0.125 0.875 0.625 0.125 0.875 0.75 0.125 0.875 0.875 0.125 0.875 1 0.125 0.875 0 0.25 0.875 0.125 0.25 0.875 0.25 0.25 0.875 0.375 0.25 0.875 0.5 0.25 0.875 0.625 0.25 0.875 0.75 0.25 0.875 0.875 0.25 0.875 1 0.25 0.875 0 0.375 0.875 0.125 0.375 0.875 0.25 0.375 0.875 0.375 0.375 0.875 0.5 0.375 0.875 0.625 0.375 0.875 0.75 0.375 0.875 0.875 0.375 0.875 1 0.375 0.875 0 0.5 0.875 0.125 0.5 0.875 0.25 0.5 0.875 0.375 0.5 0.875 0.5 0.5 0.875 0.625 0.5 0.875 0.75 0.5 0.875 0.875 0.5 0.875 1 0.5 0.875 0 0.625 0.875 0.125 0.625 0.875 0.25 0.625 0.875 0.375 0.625 0.875 0.5 0.625 0.875 0.625 0.625 0.875 0.75 0.625 0.875 0.875 0.625 0.875 1 0.625 0.875 0 0.75 0.875 0.125 0.75 0.875 0.25 0.75 0.875 0.375 0.75 0.875 0.5 0.75 0.875 0.625 0.75 0.875 0.75 0.75 0.875 0.875 0.75 0.875 1 0.75 0.875 0 0.875 0.875 0.125 0.875 0.875 0.25 0.875 0.875 0.375 0.875 0.875 0.5 0.875 0.875 0.625 0.875 0.875 0.75 0.875 0.875 0.875 0.875 0.875 1 0.875 0.875 0 1 0.875 0.125 1 0.875 0.25 1 0.875 0.375 1 0.875 0.5 1 0.875 0.625 1 0.875 0.75 1 0.875 0.875 1 0.875 1 1 0.875 0 0 1 0.125 0 1 0.25 0 1 0.375 0 1 0.5 0 1 0.625 0 1 0.75 0 1 0.875 0 1 1 0 1 0 0.125 1 0.125 0.125 1 0.25 0.125 1 0.375 0.125 1 0.5 0.125 1 0.625 0.125 1 0.75 0.125 1 0.875 0.125 1 1 0.125 1 0 0.25 1 0.125 0.25 1 0.25 0.25 1 0.375 0.25 1 0.5 0.25 1 0.625 0.25 1 0.75 0.25 1 0.875 0.25 1 1 0.25 1 0 0.375 1 0.125 0.375 1 0.25 0.375 1 0.375 0.375 1 0.5 0.375 1 0.625 0.375 1 0.75 0.375 1 0.875 0.375 1 1 0.375 1 0 0.5 1 0.125 0.5 1 0.25 0.5 1 0.375 0.5 1 0.5 0.5 1 0.625 0.5 1 0.75 0.5 1 0.875 0.5 1 1 0.5 1 0 0.625 1 0.125 0.625 1 0.25 0.625 1 0.375 0.625 1 0.5 0.625 1 0.625 0.625 1 0.75 0.625 1 0.875 0.625 1 1 0.625 1 0 0.75 1 0.125 0.75 1 0.25 0.75 1 0.375 0.75 1 0.5 0.75 1 0.625 0.75 1 0.75 0.75 1 0.875 0.75 1 1 0.75 1 0 0.875 1 0.125 0.875 1 0.25 0.875 1 0.375 0.875 1 0.5 0.875 1 0.625 0.875 1 0.75 0.875 1 0.875 0.875 1 1 0.875 1 0 1 1 0.125 1 1 0.25 1 1 0.375 1 1 0.5 1 1 0.625 1 1 0.75 1 1 0.875 1 1 1 1 1         </DataArray>
      </Points>
    </Piece>
  </StructuredGrid>
</VTKFile>
