# vtk DataFile Version 2.0
Reconstructed linear interface
ASCII
DATASET POLYDATA
POINTS 793 float
0.3546063802377922 0.375 -0.25
0.375 0.3555382661324835 -0.25
0.375 0.375 -0.2375703394186834
0.375 0.375 -0.2480515050249751
0.375 0.3720915639203635 -0.25
0.5 0.3272844875660866 -0.25
0.5 0.375 -0.2180331856494365
0.625 0.375 -0.2309729990656825
0.625 0.3487615587952821 -0.25
0.5 0.3122109929627361 -0.25
0.5 0.375 -0.2044680842035665
0.6511901775545857 0.375 -0.25
0.625 0.3536715731979343 -0.25
0.625 0.375 -0.2343277729967137
0.375 0.375 -0.2451859468693213
0.3672763806025772 0.375 -0.25
0.3138446672156144 0.5 -0.25
0.375 0.5 -0.2118825053255987
0.375 0.5 -0.209436175608288
0.375 0.3823312152037593 -0.25
0.3830099347661823 0.375 -0.25
0.5 0.375 -0.2130874882958135
0.5 0.5 -0.1699963825472141
0.5 0.5 -0.1554912787824466
0.625 0.5 -0.1756595002389197
0.625 0.375 -0.2258856033687326
0.5 0.375 -0.2057173819122595
0.625 0.375 -0.2244710440537037
0.6618606862934961 0.375 -0.25
0.7101111510093718 0.5 -0.25
0.625 0.5 -0.1910537609811079
0.375 0.625 -0.2371067409748084
0.3570420492025917 0.625 -0.25
0.3108577425345844 0.5 -0.25
0.375 0.5 -0.2039478223717216
0.5 0.5 -0.1601584711228358
0.5 0.625 -0.1768837174328124
0.375 0.625 -0.2226219264322922
0.375 0.5 -0.2058966801223156
0.625 0.625 -0.218591861403372
0.625 0.5 -0.1894331812687838
0.5 0.5 -0.153254443730664
0.5 0.625 -0.1824131238652523
0.625 0.625 -0.2259355698774145
0.6584437501265038 0.625 -0.25
0.7152793614412386 0.5 -0.25
0.625 0.5 -0.1850395402221167
0.375 0.6581946469404898 -0.25
0.3486603108393553 0.625 -0.25
0.375 0.625 -0.2298950326700506
0.375 0.625 -0.2222618482046473
0.375 0.6666533138252622 -0.25
0.5 0.7318855354682242 -0.25
0.5 0.625 -0.1788218166750747
0.625 0.625 -0.220106769732631
0.625 0.6681295242132056 -0.25
0.5 0.7321012048942288 -0.25
0.5 0.625 -0.1757677649308366
0.625 0.663460341982713 -0.25
0.6597069735951369 0.625 -0.25
0.625 0.625 -0.2242290759632649
0.375 0.5 0.2435588460274317
0.375 0.4862096744512759 0.25
0.4903503803210507 0.375 0.25
0.5 0.375 0.2456546686622022
0.5 0.5 0.187269952237177
0.625 0.5 0.1956112606735219
0.625 0.3866812520347173 0.25
0.5772774448410297 0.375 0.25
0.5 0.375 0.2409212577888336
0.5 0.5 0.1809259565886064
0.625 0.375 0.2352998852815407
0.6488168152119572 0.375 0.25
0.7122703194330443 0.5 0.25
0.625 0.5 0.1961353797405175
0.375 0.5124394862260313 0.25
0.3736695243315863 0.5 0.25
0.375 0.5 0.2489963276255382
0.5 0.625 0.1917912707061637
0.3766739855771624 0.625 0.25
0.375 0.6180497309338545 0.25
0.375 0.5 0.2365801235405795
0.5 0.5 0.177581288657433
0.5 0.5 0.1645924526033367
0.5 0.625 0.192369552156453
0.625 0.625 0.2233729955337656
0.625 0.5 0.1955958959806493
0.625 0.625 0.2331078896217106
0.6490315921761014 0.625 0.25
0.6974285046091951 0.5 0.25
0.625 0.5 0.1990890871721072
0.375 0.625 0.2394015324945118
0.375 0.6419723975215164 0.25
0.5 0.7052647050181414 0.25
0.5 0.625 0.1998784501780649
0.625 0.625 0.23241633248028
0.625 0.6499476067622275 0.25
0.5 0.6988876730091393 0.25
0.5 0.625 0.1979222079944918
0.625 0.6480330282295778 0.25
0.6477786651826301 0.625 0.25
0.625 0.625 0.2340416375379956
0.375 -0.25 0.3475621285642025
0.3475904098266924 -0.25 0.375
0.375 -0.2315219567832972 0.375
0.375 -0.2377754938460974 0.375
0.375 -0.25 0.3567195638194433
0.5 -0.25 0.3076087660254694
0.5 -0.2049340865664371 0.375
0.625 -0.2393985491057055 0.375
0.625 -0.25 0.3600106085927199
0.5 -0.25 0.3122566256690965
0.5 -0.2056238953378489 0.375
0.6598023439866012 -0.25 0.375
0.625 -0.25 0.3461272531468833
0.625 -0.2279848255710766 0.375
-0.25 0.375 0.3585762303314689
-0.25 0.3593003110528316 0.375
-0.2395627567181269 0.375 0.375
0.2976510366366735 0.375 0.375
0.375 0.375 0.298908585933031
0.375 0.2990661076673609 0.375
0.375 0.3083362028537959 0.375
0.375 0.375 0.3056622626812886
0.4726064208904366 0.375 0.25
0.5 0.3599806330093319 0.25
0.5 0.25 0.3643920473810104
0.4813984513341933 0.25 0.375
0.625 0.375 0.2621178238393427
0.625 0.2613564579899711 0.375
0.5556591786950777 0.25 0.375
0.5 0.25 0.3659453571870796
0.5 0.3667273835295714 0.25
0.5505113496573246 0.375 0.25
0.75 0.34860947738016 0.375
0.75 0.375 0.3480470049388212
0.6343742410620895 0.375 0.25
0.625 0.3672168247062668 0.25
0.625 0.25 0.3697151167828679
0.6312324048884554 0.25 0.375
0.75 0.375 0.3585762303314689
0.75 0.3593003110528316 0.375
0.760437243281873 0.375 0.375
-0.2415727793588867 0.375 0.375
-0.25 0.375 0.3621511525329
-0.25 0.5 0.3111198406554886
-0.2081026859596476 0.5 0.375
0.375 0.375 0.3074857704384304
0.3056257734106731 0.375 0.375
0.25 0.4737403433074152 0.375
0.25 0.5 0.3606031448506489
0.3636502287323543 0.5 0.25
0.375 0.4798532183426155 0.25
0.4747857776353748 0.375 0.25
0.375 0.4692198366068557 0.25
0.375 0.375 0.2968086777453368
0.5720138172779342 0.375 0.25
0.625 0.3936852253911505 0.25
0.625 0.375 0.2584399692625292
0.75 0.5 0.307119315013695
0.6894920863313796 0.5 0.25
0.6350089692126928 0.375 0.25
0.75 0.375 0.3585512375664011
0.7584272206411133 0.375 0.375
0.75 0.375 0.3621511525329
0.75 0.5 0.3111198406554886
0.7918973140403525 0.5 0.375
-0.236952419780098 0.625 0.375
-0.25 0.625 0.3564521332769919
-0.25 0.5 0.3109192430596952
-0.2049221034840889 0.5 0.375
0.25 0.5022061471748288 0.375
0.25 0.5 0.3747485316102911
0.2498099285758191 0.5 0.375
0.3642448180787837 0.5 0.25
0.25 0.5 0.3645021649240709
0.25 0.5649820105752188 0.375
0.2596741063216387 0.625 0.375
0.375 0.625 0.2594143242552207
0.375 0.5667249638724061 0.25
0.375 0.5641035676419004 0.25
0.3956730922130918 0.625 0.25
0.375 0.625 0.2591979136598931
0.625 0.6210956322786678 0.25
0.6213382638810425 0.625 0.25
0.625 0.625 0.2509083385023853
0.75 0.5 0.3190122178026794
0.6789341067578833 0.5 0.25
0.6371698794116267 0.625 0.25
0.75 0.625 0.3595695347164465
0.763047580219902 0.625 0.375
0.75 0.625 0.3564521332769919
0.75 0.5 0.3109192430596952
0.7950778965159111 0.5 0.375
1.25 0.5022061471748288 0.375
1.25 0.5 0.3747485316102911
1.249809928575819 0.5 0.375
-0.25 0.6461204237693433 0.375
-0.25 0.625 0.3576221334173267
-0.2367332012724166 0.625 0.375
0.3509527330263537 0.75 0.375
0.375 0.75 0.350902410460624
0.375 0.6279286032709597 0.25
0.3725843150539886 0.625 0.25
0.25 0.625 0.3728408413884984
0.25 0.6276121428245601 0.375
0.5 0.75 0.3037370370491442
0.5 0.6934542664045253 0.25
0.375 0.6397531124078188 0.25
0.375 0.75 0.3547707882875182
0.5 0.75 0.3157291988913699
0.5 0.6820817500080139 0.25
0.625 0.6396825562932945 0.25
0.625 0.75 0.3567618379366536
0.625 0.75 0.3470330140988165
0.6562492595653597 0.75 0.375
0.75 0.6552832130682765 0.375
0.75 0.625 0.3481740177076685
0.6403040401721901 0.625 0.25
0.625 0.6404617393469488 0.25
0.75 0.6461204237693433 0.375
0.75 0.625 0.3576221334173267
0.7632667987275834 0.625 0.375
0.375 0.75 0.3475621285642025
0.3475904098266924 0.75 0.375
0.375 0.7684780432167029 0.375
0.375 0.7622245061539026 0.375
0.375 0.75 0.3567195638194433
0.5 0.75 0.3076087660254694
0.5 0.7950659134335629 0.375
0.625 0.7606014508942944 0.375
0.625 0.75 0.3600106085927199
0.5 0.75 0.3122566256690965
0.5 0.7943761046621511 0.375
0.6598023439866012 0.75 0.375
0.625 0.75 0.3461272531468833
0.625 0.7720151744289234 0.375
0.375 -0.2371232867329047 0.375
0.356136796862402 -0.25 0.375
0.3082508376018562 -0.25 0.5
0.375 -0.204434577269302 0.5
0.5 -0.1659508971498634 0.5
0.375 -0.2065223513008911 0.5
0.375 -0.2487232869078397 0.375
0.5 -0.2081518327568121 0.375
0.5 -0.1562133884890499 0.5
0.625 -0.1766851776303661 0.5
0.625 -0.2252593631447835 0.375
0.5 -0.2047875740034673 0.375
0.625 -0.2231739709393395 0.375
0.6645586393757005 -0.25 0.375
0.7284715330077802 -0.25 0.5
0.625 -0.1798325120574588 0.5
0.375 0.2478495996545418 0.5
0.375 0.25 0.4952874498896102
0.4973194225899883 0.25 0.375
0.5 0.2487971358295991 0.375
0.5 0.1917579453943298 0.5
0.625 0.1932166529107985 0.5
0.625 0.25 0.3851852869734749
0.5827789079184799 0.25 0.375
0.5 0.2401238666851981 0.375
0.5 0.1783032323862612 0.5
0.625 0.2396832868729632 0.375
0.6408499587341618 0.25 0.375
0.6984244559170184 0.25 0.5
0.625 0.202208137515716 0.5
-0.2476823811816558 0.375 0.375
-0.25 0.3716840373820224 0.375
-0.25 0.3246540434563971 0.5
-0.2148118058748927 0.375 0.5
0.25 0.375 0.4975308931495894
0.25 0.3737707054024003 0.5
0.2490946032266725 0.375 0.5
0.375 0.3066671994217116 0.375
0.3033273856971064 0.375 0.375
0.25 0.375 0.4662616367653326
0.25 0.3562041476804844 0.5
0.3613949501506231 0.25 0.5
0.375 0.25 0.4767170450736075
0.4898348901720945 0.25 0.375
0.375 0.25 0.4880034999607502
0.375 0.3036868913404079 0.375
0.5933682481234508 0.25 0.375
0.625 0.25 0.382625250073
0.625 0.2537739009654265 0.375
0.75 0.3156780233594684 0.5
0.6814618250694912 0.25 0.5
0.635252470615153 0.25 0.375
0.75 0.3599590253609824 0.375
0.7523176188183442 0.375 0.375
0.75 0.3716840373820224 0.375
0.75 0.3246540434563971 0.5
0.7851881941251073 0.375 0.5
1.25 0.375 0.4975308931495894
1.25 0.3737707054024003 0.5
1.249094603226673 0.375 0.5
-0.2087292559970465 0.5 0.375
-0.25 0.3831500644471011 0.375
-0.25 0.375 0.3831592637891013
-0.2087790331008809 0.375 0.5
-0.164629731897084 0.5 0.5
0.2409221396287774 0.375 0.5
0.25 0.375 0.4804212759448512
0.25 0.4821048174770995 0.375
0.2418331513302999 0.5 0.375
0.1838757204371252 0.5 0.5
0.25 0.375 0.4722345071036264
0.25 0.4715023982966458 0.375
0.2969094696210449 0.375 0.375
0.75 0.375 0.3753699267736634
0.75 0.3753480791966634 0.375
0.7498611823001244 0.375 0.375
0.7912707440029535 0.5 0.375
0.75 0.3831500644471011 0.375
0.75 0.375 0.3831592637891013
0.791220966899119 0.375 0.5
0.8353702681029159 0.5 0.5
1.240922139628778 0.375 0.5
1.25 0.375 0.4804212759448512
1.25 0.4821048174770995 0.375
1.2418331513303 0.5 0.375
1.183875720437125 0.5 0.5
-0.1595652717123634 0.5 0.5
-0.1793625801518614 0.625 0.5
-0.2245293050651722 0.625 0.375
-0.2047319966256742 0.5 0.375
0.1923829251396368 0.625 0.5
0.25 0.625 0.3801190654522088
0.25 0.6050342408898061 0.375
0.2370569436312634 0.5 0.375
0.1769795477991994 0.5 0.5
0.25 0.5888031896312493 0.375
0.25 0.625 0.3882128228082876
0.2558908183704397 0.625 0.375
0.8404347282876367 0.5 0.5
0.8206374198481385 0.625 0.5
0.7754706949348278 0.625 0.375
0.7952680033743258 0.5 0.375
1.192382925139637 0.625 0.5
1.25 0.625 0.3801190654522088
1.25 0.6050342408898061 0.375
1.237056943631263 0.5 0.375
1.1769795477992 0.5 0.5
-0.2230079122229575 0.625 0.375
-0.25 0.6651294499538594 0.375
-0.25 0.7282925273727356 0.5
-0.1805228213004873 0.625 0.5
0.2395354626601461 0.625 0.375
0.25 0.6415688310828825 0.375
0.25 0.7027865745399196 0.5
0.200871578704591 0.625 0.5
0.3052813545814762 0.75 0.5
0.25 0.6917022355691325 0.5
0.25 0.640852691344351 0.375
0.3534998705406958 0.75 0.375
0.722964595687542 0.75 0.5
0.75 0.7223627516035939 0.5
0.75 0.6665908361421443 0.375
0.6684072004594198 0.75 0.375
0.7769920877770424 0.625 0.375
0.75 0.6651294499538594 0.375
0.75 0.7282925273727356 0.5
0.8194771786995128 0.625 0.5
1.239535462660146 0.625 0.375
1.25 0.6415688310828825 0.375
1.25 0.7027865745399196 0.5
1.200871578704591 0.625 0.5
0.375 0.7628767132670953 0.375
0.356136796862402 0.75 0.375
0.3082508376018562 0.75 0.5
0.375 0.795565422730698 0.5
0.5 0.8340491028501366 0.5
0.375 0.7934776486991089 0.5
0.375 0.7512767130921603 0.375
0.5 0.791848167243188 0.375
0.5 0.8437866115109501 0.5
0.625 0.8233148223696338 0.5
0.625 0.7747406368552165 0.375
0.5 0.7952124259965327 0.375
0.625 0.7768260290606605 0.375
0.6645586393757005 0.75 0.375
0.7284715330077802 0.75 0.5
0.625 0.8201674879425412 0.5
0.375 1.247849599654542 0.5
0.375 1.25 0.4952874498896102
0.4973194225899883 1.25 0.375
0.5 1.248797135829599 0.375
0.5 1.19175794539433 0.5
0.625 1.193216652910798 0.5
0.625 1.25 0.3851852869734749
0.5827789079184799 1.25 0.375
0.5 1.240123866685198 0.375
0.5 1.178303232386261 0.5
0.625 1.239683286872963 0.375
0.6408499587341618 1.25 0.375
0.6984244559170184 1.25 0.5
0.625 1.202208137515716 0.5
0.375 -0.2386623404601768 0.625
0.359384966229134 -0.25 0.625
0.3155205783749385 -0.25 0.5
0.375 -0.2068135783818326 0.5
0.5 -0.1531561352668384 0.5
0.5 -0.1710979318617762 0.625
0.375 -0.2218514641935272 0.625
0.375 -0.2039096675985895 0.5
0.625 -0.2104470559091902 0.625
0.625 -0.1809159212253927 0.5
0.5 -0.1482817907324683 0.5
0.5 -0.1778129254162658 0.625
0.625 -0.2218466334968253 0.625
0.663375914992642 -0.25 0.625
0.7213024593492936 -0.25 0.5
0.625 -0.1793505201442732 0.5
0.5 0.1928593025621727 0.625
0.382426568367998 0.25 0.625
0.375 0.25 0.5887726058033655
0.375 0.2411556402873113 0.5
0.5 0.1804056300121644 0.5
0.5 0.1544509196250175 0.5
0.625 0.1898273768509187 0.5
0.625 0.226213473158344 0.625
0.5 0.1908370159324428 0.625
0.625 0.2416654472462041 0.625
0.6366522391099128 0.25 0.625
0.6741828915914193 0.25 0.5
0.625 0.2148207180880636 0.5
-0.2303603636381596 0.375 0.625
-0.25 0.3484078695584157 0.625
-0.25 0.3147472512777718 0.5
-0.2055002906854195 0.375 0.5
0.25 0.3653898953239322 0.5
0.3663388242678021 0.25 0.5
0.375 0.25 0.5638274231317453
0.375 0.2582332143700825 0.625
0.2572729623284646 0.375 0.625
0.25 0.375 0.5714028374075778
0.375 0.25 0.6008930983015246
0.3799409088012605 0.25 0.625
0.375 0.2524017556795844 0.625
0.75 0.3321310686405896 0.5
0.6648717418826605 0.25 0.5
0.6306015540271142 0.25 0.625
0.75 0.3651946742321679 0.625
0.7696396363618404 0.375 0.625
0.75 0.3484078695584157 0.625
0.75 0.3147472512777718 0.5
0.7944997093145805 0.375 0.5
-0.2222865067337808 0.375 0.625
-0.2010242946257763 0.375 0.5
-0.15247214040495 0.5 0.5
-0.1737343525129545 0.5 0.625
0.1912149987133304 0.5 0.625
0.25 0.3775376767844946 0.625
0.25 0.375 0.6128285547259199
0.2387078349082449 0.375 0.5
0.1787046848136424 0.5 0.5
0.25 0.375 0.5889011975053398
0.25 0.3868366770423889 0.625
0.2552576285583664 0.375 0.625
0.7777134932662192 0.375 0.625
0.7989757053742237 0.375 0.5
0.8475278595950501 0.5 0.5
0.8262656474870455 0.5 0.625
1.19121499871333 0.5 0.625
1.25 0.3775376767844946 0.625
1.25 0.375 0.6128285547259199
1.238707834908245 0.375 0.5
1.178704684813642 0.5 0.5
-0.1523852638278596 0.5 0.5
-0.1860300133013609 0.625 0.5
-0.2231800665153225 0.625 0.625
-0.1895353170418212 0.5 0.625
0.1597375435010194 0.5 0.5
0.1916799035295818 0.5 0.625
0.22391429000452 0.625 0.625
0.1919719299759575 0.625 0.5
0.8476147361721403 0.5 0.5
0.8139699866986391 0.625 0.5
0.7768199334846776 0.625 0.625
0.8104646829581788 0.5 0.625
1.159737543501019 0.5 0.5
1.191679903529582 0.5 0.625
1.22391429000452 0.625 0.625
1.191971929975957 0.625 0.5
-0.2270111099248719 0.625 0.625
-0.25 0.6582036318582825 0.625
-0.25 0.7198509550075831 0.5
-0.1843289255977483 0.625 0.5
0.2349749898819717 0.625 0.625
0.25 0.6460300063137627 0.625
0.25 0.6915795584983457 0.5
0.2024318478479563 0.625 0.5
0.3229272281766097 0.75 0.5
0.25 0.6743862928179613 0.5
0.25 0.6352796182490712 0.625
0.3606444819100877 0.75 0.625
0.7149795919526655 0.75 0.5
0.75 0.7115083537745308 0.5
0.75 0.6560225827511306 0.625
0.6644976164435298 0.75 0.625
0.7729888900751281 0.625 0.625
0.75 0.6582036318582825 0.625
0.75 0.7198509550075831 0.5
0.8156710744022517 0.625 0.5
1.234974989881972 0.625 0.625
1.25 0.6460300063137627 0.625
1.25 0.6915795584983457 0.5
1.202431847847956 0.625 0.5
0.375 0.7613376595398231 0.625
0.359384966229134 0.75 0.625
0.3155205783749385 0.75 0.5
0.375 0.7931864216181674 0.5
0.5 0.8468438647331615 0.5
0.5 0.8289020681382239 0.625
0.375 0.7781485358064728 0.625
0.375 0.7960903324014105 0.5
0.625 0.7895529440908098 0.625
0.625 0.8190840787746073 0.5
0.5 0.8517182092675317 0.5
0.5 0.8221870745837342 0.625
0.625 0.7781533665031747 0.625
0.663375914992642 0.75 0.625
0.7213024593492936 0.75 0.5
0.625 0.8206494798557268 0.5
0.5 1.192859302562173 0.625
0.382426568367998 1.25 0.625
0.375 1.25 0.5887726058033655
0.375 1.241155640287311 0.5
0.5 1.180405630012164 0.5
0.5 1.154450919625017 0.5
0.625 1.189827376850919 0.5
0.625 1.226213473158344 0.625
0.5 1.190837015932443 0.625
0.625 1.241665447246204 0.625
0.6366522391099128 1.25 0.625
0.6741828915914193 1.25 0.5
0.625 1.214820718088063 0.5
0.375 -0.25 0.6710333897648441
0.3388865407723379 -0.25 0.625
0.375 -0.2216895228104319 0.625
0.375 -0.2186219384291978 0.625
0.375 -0.25 0.6706451407576599
0.5 -0.25 0.7330351695265546
0.5 -0.1757328568836233 0.625
0.625 -0.2209362313321049 0.625
0.625 -0.25 0.6655811431927435
0.5 -0.25 0.7284501699791611
0.5 -0.1759101254331744 0.625
0.625 -0.25 0.6654551638969771
0.6640893228130984 -0.25 0.625
0.625 -0.2213782459877988 0.625
0.375 0.2342934889138086 0.625
0.375 0.25 0.6494403691305983
0.5 0.25 0.7051205167938845
0.5 0.1985108519216655 0.625
0.625 0.2430369786604056 0.625
0.625 0.25 0.6347468142212285
0.5 0.25 0.6757671243038923
0.5 0.2137325015277362 0.625
0.6390903022296405 0.25 0.625
0.625 0.25 0.6389616721949656
0.625 0.2408739730623492 0.625
-0.25 0.375 0.6734371512985551
-0.25 0.3351622590277631 0.625
-0.2203836542036158 0.375 0.625
0.375 0.3455043299803253 0.75
0.344541508753288 0.375 0.75
0.25 0.375 0.6394763903579584
0.25 0.3630083862069266 0.625
0.3666972962401847 0.25 0.625
0.375 0.25 0.6347062634331126
0.5 0.3101861254764835 0.75
0.5 0.25 0.685734796283088
0.375 0.25 0.6381974120455616
0.375 0.3547061893223349 0.75
0.5 0.33354847483723 0.75
0.5 0.25 0.664497206924215
0.625 0.25 0.6281429112486886
0.625 0.3690718284986689 0.75
0.75 0.3340559127422444 0.625
0.75 0.375 0.6724777101032718
0.6712898106928179 0.375 0.75
0.625 0.3356828100955415 0.75
0.625 0.25 0.6506444180098496
0.6510373758168999 0.25 0.625
0.75 0.375 0.6734371512985551
0.75 0.3351622590277631 0.625
0.7796163457963842 0.375 0.625
-0.2224728712661376 0.375 0.625
-0.25 0.375 0.6639285957835013
-0.25 0.5 0.7089837353478643
-0.1906135503235622 0.5 0.625
0.2349161552904564 0.375 0.625
0.25 0.375 0.6494242171188596
0.25 0.5 0.708535190958502
0.1984105532607978 0.5 0.625
0.2998568415215511 0.5 0.75
0.25 0.5 0.6986488475649684
0.25 0.375 0.6496403409156928
0.3474392079019779 0.375 0.75
0.6100239253156023 0.375 0.75
0.625 0.3842368227974802 0.75
0.625 0.375 0.7463022046715369
0.75 0.5 0.7213152847334555
0.7211101128525883 0.5 0.75
0.6708016425377125 0.375 0.75
0.75 0.375 0.6713640980391556
0.7775271287338623 0.375 0.625
0.75 0.375 0.6639285957835013
0.75 0.5 0.7089837353478643
0.8093864496764378 0.5 0.625
1.234916155290456 0.375 0.625
1.25 0.375 0.6494242171188596
1.25 0.5 0.708535190958502
1.198410553260798 0.5 0.625
-0.2322612222457072 0.625 0.625
-0.25 0.625 0.6502792686219614
-0.25 0.5 0.7090174028986485
-0.19104394158709 0.5 0.625
0.2426673745206428 0.625 0.625
0.25 0.625 0.6353088140404464
0.25 0.5 0.6851279754808889
0.2072311690458781 0.5 0.625
0.3183540763424169 0.5 0.75
0.25 0.5 0.6800265635474745
0.25 0.625 0.6384541570406174
0.3589643935166442 0.625 0.75
0.6981168797001955 0.5 0.75
0.75 0.5 0.6951207509148218
0.75 0.625 0.6432759435346379
0.6491025359716338 0.625 0.75
0.7677387777542928 0.625 0.625
0.75 0.625 0.6502792686219614
0.75 0.5 0.7090174028986485
0.80895605841291 0.5 0.625
1.242667374520643 0.625 0.625
1.25 0.625 0.6353088140404464
1.25 0.5 0.6851279754808889
1.207231169045878 0.5 0.625
-0.25 0.6439560338407008 0.625
-0.25 0.625 0.6426946585744939
-0.2375350780021011 0.625 0.625
0.3418503977224595 0.75 0.625
0.375 0.75 0.6635961380099084
0.375 0.6634402046097837 0.75
0.3420438025953854 0.625 0.75
0.25 0.625 0.6428332449305083
0.25 0.6428654286599531 0.625
0.5 0.75 0.7304882211102323
0.5 0.7300930060380699 0.75
0.375 0.6726542685831913 0.75
0.375 0.75 0.6741898192987741
0.5 0.75 0.7146625057432155
0.5 0.7131753447487282 0.75
0.625 0.6627003562731634 0.75
0.625 0.75 0.6662259459656484
0.6629148653444215 0.75 0.625
0.625 0.75 0.6641391077008304
0.625 0.6591115821186092 0.75
0.6562167232543858 0.625 0.75
0.75 0.625 0.6531885321037165
0.75 0.6548390922421192 0.625
0.75 0.6439560338407008 0.625
0.75 0.625 0.6426946585744939
0.7624649219978989 0.625 0.625
0.375 0.75 0.6710333897648441
0.3388865407723379 0.75 0.625
0.375 0.7783104771895681 0.625
0.375 0.7813780615708023 0.625
0.375 0.75 0.6706451407576599
0.5 0.75 0.7330351695265546
0.5 0.8242671431163767 0.625
0.625 0.7790637686678951 0.625
0.625 0.75 0.6655811431927435
0.5 0.75 0.7284501699791611
0.5 0.8240898745668257 0.625
0.625 0.75 0.6654551638969771
0.6640893228130984 0.75 0.625
0.625 0.7786217540122012 0.625
0.375 1.234293488913809 0.625
0.375 1.25 0.6494403691305983
0.5 1.25 0.7051205167938845
0.5 1.198510851921665 0.625
0.625 1.243036978660406 0.625
0.625 1.25 0.6347468142212285
0.5 1.25 0.6757671243038923
0.5 1.213732501527736 0.625
0.6390903022296405 1.25 0.625
0.625 1.25 0.6389616721949656
0.625 1.240873973062349 0.625
0.3546063802377922 0.375 0.75
0.375 0.3555382661324835 0.75
0.375 0.375 0.7624296605813167
0.375 0.375 0.7519484949750249
0.375 0.3720915639203635 0.75
0.5 0.3272844875660866 0.75
0.5 0.375 0.7819668143505636
0.625 0.375 0.7690270009343175
0.625 0.3487615587952821 0.75
0.5 0.3122109929627361 0.75
0.5 0.375 0.7955319157964336
0.6511901775545857 0.375 0.75
0.625 0.3536715731979343 0.75
0.625 0.375 0.7656722270032863
0.375 0.375 0.7548140531306786
0.3672763806025772 0.375 0.75
0.3138446672156144 0.5 0.75
0.375 0.5 0.7881174946744014
0.375 0.5 0.790563824391712
0.375 0.3823312152037593 0.75
0.3830099347661823 0.375 0.75
0.5 0.375 0.7869125117041865
0.5 0.5 0.8300036174527859
0.5 0.5 0.8445087212175535
0.625 0.5 0.8243404997610804
0.625 0.375 0.7741143966312674
0.5 0.375 0.7942826180877405
0.625 0.375 0.7755289559462963
0.6618606862934961 0.375 0.75
0.7101111510093718 0.5 0.75
0.625 0.5 0.8089462390188921
0.375 0.625 0.7628932590251916
0.3570420492025917 0.625 0.75
0.3108577425345844 0.5 0.75
0.375 0.5 0.7960521776282784
0.5 0.5 0.8398415288771641
0.5 0.625 0.8231162825671876
0.375 0.625 0.7773780735677078
0.375 0.5 0.7941033198776843
0.625 0.625 0.7814081385966281
0.625 0.5 0.8105668187312162
0.5 0.5 0.8467455562693359
0.5 0.625 0.8175868761347477
0.625 0.625 0.7740644301225855
0.6584437501265038 0.625 0.75
0.7152793614412386 0.5 0.75
0.625 0.5 0.8149604597778833
0.375 0.6581946469404898 0.75
0.3486603108393553 0.625 0.75
0.375 0.625 0.7701049673299494
0.375 0.625 0.7777381517953528
0.375 0.6666533138252622 0.75
0.5 0.7318855354682242 0.75
0.5 0.625 0.8211781833249253
0.625 0.625 0.779893230267369
0.625 0.6681295242132056 0.75
0.5 0.7321012048942288 0.75
0.5 0.625 0.8242322350691634
0.625 0.663460341982713 0.75
0.6597069735951369 0.625 0.75
0.625 0.625 0.7757709240367351
0.375 0.5 1.243558846027432
0.375 0.4862096744512759 1.25
0.4903503803210507 0.375 1.25
0.5 0.375 1.245654668662202
0.5 0.5 1.187269952237177
0.625 0.5 1.195611260673522
0.625 0.3866812520347173 1.25
0.5772774448410297 0.375 1.25
0.5 0.375 1.240921257788834
0.5 0.5 1.180925956588606
0.625 0.375 1.235299885281541
0.6488168152119572 0.375 1.25
0.7122703194330443 0.5 1.25
0.625 0.5 1.196135379740517
0.375 0.5124394862260313 1.25
0.3736695243315863 0.5 1.25
0.375 0.5 1.248996327625538
0.5 0.625 1.191791270706164
0.3766739855771624 0.625 1.25
0.375 0.6180497309338545 1.25
0.375 0.5 1.23658012354058
0.5 0.5 1.177581288657433
0.5 0.5 1.164592452603337
0.5 0.625 1.192369552156453
0.625 0.625 1.223372995533766
0.625 0.5 1.195595895980649
0.625 0.625 1.233107889621711
0.6490315921761014 0.625 1.25
0.6974285046091951 0.5 1.25
0.625 0.5 1.199089087172107
0.375 0.625 1.239401532494512
0.375 0.6419723975215164 1.25
0.5 0.7052647050181414 1.25
0.5 0.625 1.199878450178065
0.625 0.625 1.23241633248028
0.625 0.6499476067622275 1.25
0.5 0.6988876730091393 1.25
0.5 0.625 1.197922207994492
0.625 0.6480330282295778 1.25
0.6477786651826301 0.625 1.25
0.625 0.625 1.234041637537996
POLYGONS 198 991
3 0 1 2
4 3 4 5 6
4 7 8 9 10
3 11 12 13
4 14 15 16 17
5 18 19 20 21 22
4 23 24 25 26
4 27 28 29 30
4 31 32 33 34
4 35 36 37 38
4 39 40 41 42
4 43 44 45 46
3 47 48 49
4 50 51 52 53
4 54 55 56 57
3 58 59 60
5 61 62 63 64 65
5 66 67 68 69 70
4 71 72 73 74
3 75 76 77
5 78 79 80 81 82
4 83 84 85 86
4 87 88 89 90
4 91 92 93 94
4 95 96 97 98
3 99 100 101
3 102 103 104
4 105 106 107 108
4 109 110 111 112
3 113 114 115
3 116 117 118
3 119 120 121
6 122 123 124 125 126 127
6 128 129 130 131 132 133
6 134 135 136 137 138 139
3 140 141 142
4 143 144 145 146
6 147 148 149 150 151 152
3 153 154 155
3 156 157 158
4 159 160 161 162
4 163 164 165 166
4 167 168 169 170
3 171 172 173
6 174 175 176 177 178 179
3 180 181 182
3 183 184 185
4 186 187 188 189
4 190 191 192 193
3 194 195 196
3 197 198 199
6 200 201 202 203 204 205
4 206 207 208 209
4 210 211 212 213
6 214 215 216 217 218 219
3 220 221 222
3 223 224 225
4 226 227 228 229
4 230 231 232 233
3 234 235 236
4 237 238 239 240
4 241 242 243 244
4 245 246 247 248
4 249 250 251 252
5 253 254 255 256 257
5 258 259 260 261 262
4 263 264 265 266
4 267 268 269 270
3 271 272 273
6 274 275 276 277 278 279
3 280 281 282
3 283 284 285
4 286 287 288 289
4 290 291 292 293
3 294 295 296
5 297 298 299 300 301
5 302 303 304 305 306
3 307 308 309
3 310 311 312
5 313 314 315 316 317
5 318 319 320 321 322
4 323 324 325 326
5 327 328 329 330 331
3 332 333 334
4 335 336 337 338
5 339 340 341 342 343
4 344 345 346 347
4 348 349 350 351
4 352 353 354 355
4 356 357 358 359
4 360 361 362 363
4 364 365 366 367
4 368 369 370 371
4 372 373 374 375
4 376 377 378 379
4 380 381 382 383
5 384 385 386 387 388
5 389 390 391 392 393
4 394 395 396 397
4 398 399 400 401
4 402 403 404 405
4 406 407 408 409
4 410 411 412 413
5 414 415 416 417 418
4 419 420 421 422
4 423 424 425 426
4 427 428 429 430
6 431 432 433 434 435 436
3 437 438 439
4 440 441 442 443
4 444 445 446 447
4 448 449 450 451
5 452 453 454 455 456
3 457 458 459
4 460 461 462 463
5 464 465 466 467 468
4 469 470 471 472
4 473 474 475 476
4 477 478 479 480
4 481 482 483 484
4 485 486 487 488
4 489 490 491 492
4 493 494 495 496
4 497 498 499 500
4 501 502 503 504
4 505 506 507 508
4 509 510 511 512
4 513 514 515 516
4 517 518 519 520
4 521 522 523 524
5 525 526 527 528 529
4 530 531 532 533
4 534 535 536 537
3 538 539 540
4 541 542 543 544
4 545 546 547 548
3 549 550 551
4 552 553 554 555
4 556 557 558 559
3 560 561 562
3 563 564 565
6 566 567 568 569 570 571
4 572 573 574 575
4 576 577 578 579
6 580 581 582 583 584 585
3 586 587 588
4 589 590 591 592
4 593 594 595 596
4 597 598 599 600
3 601 602 603
4 604 605 606 607
4 608 609 610 611
4 612 613 614 615
4 616 617 618 619
4 620 621 622 623
4 624 625 626 627
4 628 629 630 631
4 632 633 634 635
4 636 637 638 639
3 640 641 642
6 643 644 645 646 647 648
4 649 650 651 652
4 653 654 655 656
6 657 658 659 660 661 662
3 663 664 665
3 666 667 668
4 669 670 671 672
4 673 674 675 676
3 677 678 679
4 680 681 682 683
4 684 685 686 687
3 688 689 690
3 691 692 693
4 694 695 696 697
4 698 699 700 701
3 702 703 704
4 705 706 707 708
5 709 710 711 712 713
4 714 715 716 717
4 718 719 720 721
4 722 723 724 725
4 726 727 728 729
4 730 731 732 733
4 734 735 736 737
3 738 739 740
4 741 742 743 744
4 745 746 747 748
3 749 750 751
5 752 753 754 755 756
5 757 758 759 760 761
4 762 763 764 765
3 766 767 768
5 769 770 771 772 773
4 774 775 776 777
4 778 779 780 781
4 782 783 784 785
4 786 787 788 789
3 790 791 792
CELL_DATA 198
SCALARS c float
LOOKUP_TABLE default
-1997998
-1997997
-1997996
-1997995
-1996998
-1996997
-1996996
-1996995
-1995998
-1995997
-1995996
-1995995
-1994998
-1994997
-1994996
-1994995
1003003
1003004
1003005
1004002
1004003
1004004
1004005
1005003
1005004
1005005
1998002
1998003
1998004
1998005
2001998
2002002
2002003
2002004
2002005
2002006
2002998
2003002
2003003
2003004
2003005
2003006
2003998
2004001
2004002
2004003
2004004
2004005
2004006
2004009
2004998
2005002
2005003
2005004
2005005
2005006
2006002
2006003
2006004
2006005
2998002
2998003
2998004
2998005
3001003
3001004
3001005
3001998
3002001
3002002
3002003
3002004
3002005
3002006
3002009
3002998
3003001
3003002
3003005
3003006
3003009
3003998
3004001
3004002
3004006
3004009
3004998
3005001
3005002
3005005
3005006
3005009
3006002
3006003
3006004
3006005
3009003
3009004
3009005
3998002
3998003
3998004
3998005
4001003
4001004
4001005
4001998
4002002
4002003
4002005
4002006
4002998
4003001
4003002
4003006
4003009
4003998
4004001
4004006
4004009
4004998
4005001
4005002
4005005
4005006
4005009
4006002
4006003
4006004
4006005
4009003
4009004
4009005
4998002
4998003
4998004
4998005
5001003
5001004
5001005
5001998
5002002
5002003
5002004
5002005
5002006
5002998
5003001
5003002
5003004
5003005
5003006
5003009
5003998
5004001
5004002
5004005
5004006
5004009
5004998
5005002
5005003
5005004
5005005
5005006
5006002
5006003
5006004
5006005
5009003
5009004
5009005
6002002
6002003
6002004
6002005
6003002
6003003
6003004
6003005
6004002
6004003
6004004
6004005
6005002
6005003
6005004
6005005
9003003
9003004
9003005
9004002
9004003
9004004
9004005
9005003
9005004
9005005
