# vtk DataFile Version 2.0
Interface from PLIC
ASCII
DATASET POLYDATA
POINTS 511 float
0.4194622331926848 0.375 0.25
0.5 0.3440240542634454 0.25
0.5 0.375 0.2270004194934873
0.6102643467478546 0.375 0.25
0.5 0.3486874341755237 0.25
0.5 0.375 0.2296583249072915
0.375 0.3836600034417083 0.25
0.3368668789156508 0.5 0.25
0.375 0.5 0.2212885885752516
0.5 0.375 0.2061236065724952
0.3955666481190545 0.375 0.25
0.375 0.4000907685451108 0.25
0.375 0.5 0.2155929945401161
0.5 0.5 0.1630757758579991
0.5 0.5 0.1585174696358978
0.625 0.5 0.187000890944126
0.625 0.375 0.2403422253856382
0.5 0.375 0.21185880407741
0.625 0.375 0.2295755604032167
0.6546054014789775 0.375 0.25
0.7044704674205167 0.5 0.25
0.625 0.5 0.1951742019877334
0.375 0.6027799407390428 0.25
0.3586529340808736 0.5 0.25
0.375 0.5 0.2378372135275439
0.5 0.625 0.1934617261953478
0.3755664748432916 0.625 0.25
0.375 0.6234030538884383 0.25
0.375 0.5 0.2301106122691417
0.5 0.5 0.1733149519623139
0.5 0.5 0.1542218480560909
0.625 0.5 0.1892176459439183
0.625 0.625 0.2269631631796658
0.5 0.625 0.1919673652918384
0.625 0.625 0.2446477493310406
0.6323797459582297 0.625 0.25
0.6835634490734013 0.5 0.25
0.625 0.5 0.2075261450388896
0.375 0.6589617045983618 0.25
0.3516883698864246 0.625 0.25
0.375 0.625 0.2334143755565763
0.375 0.625 0.2195691697194397
0.375 0.6747199259571314 0.25
0.5 0.7190099631643592 0.25
0.5 0.625 0.1924616755020325
0.6209578096337263 0.625 0.25
0.5 0.6872326956945506 0.25
0.5 0.625 0.2060117558786127
0.4244400276812273 0.25 0.375
0.5 0.25 0.3452243640698444
0.5 0.2284930183466495 0.375
0.6073398125253902 0.25 0.375
0.5 0.25 0.3500526303714953
0.5 0.2310873958326125 0.375
0.3712489727246328 0.375 0.25
0.375 0.3709632686305151 0.25
0.375 0.25 0.3732709754818856
0.3734234265622332 0.25 0.375
0.2572704387847149 0.375 0.375
0.5 0.3298596403016666 0.25
0.5 0.25 0.3311804792525352
0.4045611941476003 0.25 0.375
0.375 0.2633518160165427 0.375
0.375 0.375 0.2615052102762461
0.4000583190120629 0.375 0.25
0.5 0.3398840739349622 0.25
0.5 0.25 0.3408602509692625
0.6144588229822123 0.25 0.375
0.625 0.2531103479191367 0.375
0.625 0.375 0.2517865774905034
0.619010220855888 0.375 0.25
0.75 0.375 0.3500125585537539
0.75 0.3499742280419796 0.375
0.6370106844887669 0.25 0.375
0.625 0.25 0.3643890871683259
0.625 0.3645645590053282 0.25
0.6367939728881999 0.375 0.25
0.75 0.3413706792664147 0.375
0.75 0.375 0.3418107220745058
0.7728404640290618 0.375 0.375
0.25 0.4581183518876232 0.375
0.25 0.5 0.3580404503966109
0.2390024312171656 0.5 0.375
0.3371847564186325 0.5 0.25
0.25 0.5 0.3464886903578951
0.25 0.4346669926714403 0.375
0.273527880899356 0.375 0.375
0.375 0.375 0.2626992689771506
0.375 0.4041000814612273 0.25
0.375 0.4024809522323452 0.25
0.3991377128235955 0.375 0.25
0.375 0.375 0.2603837937581536
0.75 0.5 0.3073615295119758
0.6913231665609538 0.5 0.25
0.6457386742759622 0.375 0.25
0.75 0.375 0.3519241966881153
0.7669254540477455 0.375 0.375
0.75 0.375 0.3508025623389766
0.75 0.5 0.3084562013071329
0.7965455897734469 0.5 0.375
0.25 0.5611740253508555 0.375
0.25 0.5 0.3668749630900369
0.2444110179329259 0.5 0.375
0.25 0.5 0.3569565429731572
0.3573117028729939 0.5 0.25
0.375 0.6178928376473357 0.25
0.375 0.625 0.2510628087246095
0.250651262883506 0.625 0.375
0.25 0.620659320462585 0.375
0.75 0.5 0.3189698960427024
0.6797864111231876 0.5 0.25
0.6319493221120831 0.625 0.25
0.75 0.625 0.3659596470134145
0.7535870863133015 0.625 0.375
0.75 0.625 0.3700715096710619
0.75 0.5 0.3211798967104544
0.7891717022871788 0.5 0.375
0.25 0.6591525049750621 0.375
0.25 0.625 0.3482031750381148
0.2320414246707275 0.625 0.375
0.3254620953487671 0.75 0.375
0.375 0.75 0.3218351560427249
0.375 0.666988626694296 0.25
0.3411433331004267 0.625 0.25
0.25 0.625 0.3478164320058607
0.25 0.6564128267390466 0.375
0.5 0.75 0.2850339280015115
0.5 0.7135487934029804 0.25
0.375 0.6677204008531427 0.25
0.375 0.75 0.3290804426413669
0.5 0.7009536274820788 0.25
0.5 0.75 0.3019927625086002
0.625 0.75 0.3675102635285734
0.625 0.639148953015371 0.25
0.625 0.75 0.3512491642633093
0.6502708452591472 0.75 0.375
0.75 0.6487043734134709 0.375
0.75 0.625 0.3530659388198721
0.6403380318789305 0.625 0.25
0.625 0.6405789503462419 0.25
0.75 0.6677561466363297 0.375
0.75 0.625 0.338235738053592
0.7781343103690228 0.625 0.375
0.375 0.75 0.3401539236083902
0.3449193576438551 0.75 0.375
0.375 0.769073810960992 0.375
0.375 0.7741795896680747 0.375
0.375 0.75 0.3357902468006869
0.5 0.75 0.2885134983552795
0.5 0.8033338761651079 0.375
0.625 0.7618878817676806 0.375
0.625 0.75 0.3575424859374571
0.5 0.75 0.2928952646706643
0.5 0.8059101016711243 0.375
0.6418443677828738 0.75 0.375
0.625 0.75 0.3593987968820564
0.625 0.7609381970793435 0.375
0.375 0.25 0.3990041120183937
0.3389916971707206 0.25 0.5
0.375 0.2232830952248885 0.5
0.5 0.2100675570059642 0.375
0.4054034926799054 0.25 0.375
0.375 0.25 0.4111680045407365
0.375 0.2184776109250506 0.5
0.5 0.1657108067832855 0.5
0.5 0.1605537591066363 0.5
0.625 0.1868475319084077 0.5
0.625 0.242393278181841 0.375
0.5 0.2160995053800697 0.375
0.625 0.2309048827284192 0.375
0.6531003091930014 0.25 0.375
0.7068093664796162 0.25 0.5
0.625 0.194407748821815 0.5
0.25 0.375 0.4642286062498726
0.25 0.3597437167214456 0.5
0.2399609455104046 0.375 0.5
0.3390464517776235 0.25 0.5
0.25 0.3469889499169003 0.5
0.25 0.375 0.4382603682227006
0.2763506560404781 0.375 0.375
0.375 0.2675516279467357 0.375
0.375 0.25 0.413685841598542
0.375 0.25 0.408730346160964
0.405724481095879 0.25 0.375
0.375 0.2630504256697689 0.375
0.6021134134155084 0.25 0.375
0.625 0.25 0.3858338576440823
0.625 0.2548141976628855 0.375
0.75 0.3039021832968283 0.5
0.6942910640806208 0.25 0.5
0.6451669873245934 0.25 0.375
0.75 0.3514330676314859 0.375
0.7684262412171384 0.375 0.375
0.75 0.3482646367097397 0.375
0.75 0.3031984819730243 0.5
0.7994862207989428 0.375 0.5
0.2351691925544332 0.375 0.5
0.25 0.375 0.4625947612010523
0.25 0.4642724162466205 0.375
0.2361005743721296 0.5 0.375
0.186539309955125 0.5 0.5
0.25 0.4335806307763381 0.375
0.25 0.375 0.4325223751702294
0.2728239579436577 0.375 0.375
0.840076708128825 0.5 0.5
0.8004259806689344 0.375 0.5
0.7599165458936912 0.375 0.375
0.7995672733535817 0.5 0.375
0.173761387225497 0.5 0.5
0.1903959392785965 0.625 0.5
0.2477146929474894 0.625 0.375
0.2310801408943899 0.5 0.375
0.8482576358211494 0.5 0.5
0.818658061983595 0.625 0.5
0.7732299527224528 0.625 0.375
0.8028295265600072 0.5 0.375
0.2279265932064499 0.625 0.375
0.25 0.6588038541446374 0.375
0.25 0.6992232591614548 0.5
0.2015333314951665 0.625 0.5
0.3118059152835987 0.75 0.5
0.25 0.6850617700748758 0.5
0.25 0.6544749386372928 0.375
0.3409173819004854 0.75 0.375
0.375 0.75 0.389754784380257
0.38409846681048 0.75 0.375
0.375 0.7469287160338881 0.375
0.75 0.7087269694872418 0.5
0.7046439440672806 0.75 0.5
0.6513368421807668 0.75 0.375
0.75 0.6602186590209953 0.375
0.7772470086659656 0.625 0.375
0.75 0.6633966266566902 0.375
0.75 0.7059388917539978 0.5
0.8074358446837822 0.625 0.5
0.375 0.7568363428557197 0.375
0.3647382918878521 0.75 0.375
0.3370567226893972 0.75 0.5
0.375 0.7752777851338276 0.5
0.5 0.8217347360246549 0.5
0.5 0.7986270814821571 0.375
0.375 0.762698465746523 0.375
0.375 0.7858061202890207 0.5
0.5 0.8286211474512388 0.5
0.625 0.8018163144806603 0.5
0.625 0.7689231788150093 0.375
0.5 0.7957280117855878 0.375
0.625 0.7704496963659084 0.375
0.6563187607259632 0.75 0.375
0.7033754852810606 0.75 0.5
0.625 0.8011755522688908 0.5
0.375 0.2496823978407608 0.625
0.3745716210528039 0.25 0.625
0.3573081985101313 0.25 0.5
0.375 0.2368832154549339 0.5
0.5 0.1709327768903284 0.5
0.5 0.191427094465576 0.625
0.375 0.2475956742504855 0.625
0.375 0.227101356675238 0.5
0.625 0.2237636377991488 0.625
0.5 0.1895587804273645 0.625
0.5 0.1486933779769434 0.5
0.625 0.1828982353487277 0.5
0.625 0.2424005288698934 0.625
0.6353215385176291 0.25 0.625
0.6937584117880349 0.25 0.5
0.625 0.1993750312085085 0.5
0.25 0.375 0.5914418121474833
0.25 0.3621374662013025 0.5
0.2411667280700033 0.375 0.5
0.25 0.3489869189089777 0.5
0.3499094904787042 0.25 0.5
0.3719493170811985 0.25 0.625
0.25 0.3708232281346167 0.625
0.6015431333484087 0.25 0.625
0.625 0.25 0.6017717346462053
0.625 0.2576544110648064 0.625
0.75 0.3131206590474919 0.5
0.6864990227407854 0.25 0.5
0.6335523641291141 0.25 0.625
0.75 0.3657502110666508 0.625
0.7552036270381064 0.375 0.625
0.75 0.3677776790618602 0.625
0.75 0.3092540585893463 0.5
0.7973694483117709 0.375 0.5
0.1688801756080282 0.5 0.5
0.1898131577636734 0.5 0.625
0.2443540352637867 0.375 0.625
0.2234210531081415 0.375 0.5
0.846893585972895 0.5 0.5
0.8176580202092145 0.5 0.625
0.7742375480255383 0.375 0.625
0.8034731137892188 0.375 0.5
0.1433461747435158 0.5 0.5
0.1864824506136963 0.5 0.625
0.2361231533252306 0.625 0.625
0.1929868774550501 0.625 0.5
0.8556237767372508 0.5 0.5
0.8097185620059468 0.625 0.5
0.7611427389588429 0.625 0.625
0.8070479536901468 0.5 0.625
0.25 0.625 0.5512582193155036
0.25 0.6411554644656724 0.5
0.2386344214208237 0.625 0.5
0.25 0.6536653185121568 0.5
0.3488393040441601 0.75 0.5
0.375 0.75 0.5794152299176166
0.375 0.7353641398323512 0.625
0.2617664832229863 0.625 0.625
0.25 0.625 0.5892808443608458
0.375 0.75 0.5022795169639003
0.4924438146079202 0.75 0.625
0.375 0.7067154744957747 0.625
0.5888228192305967 0.75 0.625
0.625 0.75 0.6006623218394779
0.625 0.7393518722754379 0.625
0.75 0.693392486912096 0.5
0.6886693018051363 0.75 0.5
0.625 0.75 0.6083374385385475
0.625 0.740961643744218 0.625
0.75 0.6255881139418035 0.625
0.754909759208658 0.625 0.625
0.75 0.6319406316043801 0.625
0.75 0.7004042146395726 0.5
0.8033404678854631 0.625 0.5
0.375 0.7753298594665803 0.625
0.3380534917966851 0.75 0.625
0.3001778865597007 0.75 0.5
0.375 0.8012966910974627 0.5
0.5 0.8430854641062785 0.5
0.5 0.8006850228134542 0.625
0.375 0.7546156260888072 0.625
0.375 0.7970160673816314 0.5
0.5 0.8374698340583492 0.5
0.625 0.8010658155153901 0.5
0.625 0.7527945133591853 0.625
0.5 0.7891985319021443 0.625
0.625 0.7560967887796958 0.625
0.6342865061042824 0.75 0.625
0.7063835419278343 0.75 0.5
0.625 0.8034300262882195 0.5
0.375 0.25 0.6941784245449538
0.3241909745108029 0.25 0.625
0.375 0.2131354314603101 0.625
0.375 0.2138389849992157 0.625
0.375 0.25 0.6813873060138702
0.5 0.25 0.7283171666613981
0.5 0.1837430021472856 0.625
0.625 0.2450996620227571 0.625
0.625 0.25 0.6315577176590397
0.5 0.25 0.6839159862281556
0.5 0.2059742794991226 0.625
0.25 0.375 0.6527391211182264
0.25 0.3510455097691785 0.625
0.2343645597346374 0.375 0.625
0.3316998482744414 0.375 0.75
0.375 0.3279173555168945 0.75
0.375 0.25 0.6674790754444941
0.3381129652091684 0.25 0.625
0.25 0.3458100895717359 0.625
0.25 0.375 0.6559145296353194
0.5 0.25 0.6982613041555772
0.5 0.3032867341376804 0.75
0.375 0.3455355806894077 0.75
0.375 0.25 0.657239833110464
0.5 0.25 0.6885877302739531
0.5 0.3163814401308721 0.75
0.6143751810442181 0.375 0.75
0.625 0.375 0.7449622876359466
0.625 0.25 0.6293195160928551
0.75 0.3666989095997684 0.625
0.75 0.375 0.6336150011003752
0.6267175488417276 0.375 0.75
0.625 0.3734376272766166 0.75
0.625 0.2529923379563668 0.625
0.75 0.375 0.6381473993684506
0.75 0.3632899572126348 0.625
0.7594667127724425 0.375 0.625
0.2317259449135433 0.375 0.625
0.25 0.375 0.6517984908886439
0.25 0.5 0.693317800317737
0.2034136734945433 0.5 0.625
0.3206490103123395 0.5 0.75
0.25 0.5 0.6778600167291464
0.25 0.375 0.6425701638819689
0.3552095004133747 0.375 0.75
0.375 0.4249034217280895 0.75
0.4162790450996531 0.375 0.75
0.375 0.375 0.7366863595229336
0.75 0.5 0.7101818073720754
0.7062714384849558 0.5 0.75
0.6519197149052358 0.375 0.75
0.75 0.375 0.6606904149234022
0.7773025299359824 0.375 0.625
0.75 0.375 0.6623946118382068
0.75 0.5 0.7061881537182357
0.8092770425570907 0.5 0.625
0.25 0.5534124853124653 0.625
0.25 0.5 0.6415086298589542
0.2385067763988651 0.5 0.625
0.3379589040075285 0.5 0.75
0.25 0.5 0.6617007958653914
0.25 0.6156071782481832 0.625
0.2529703647475299 0.625 0.625
0.375 0.625 0.7475017500525862
0.375 0.6171305350423877 0.75
0.4785435820567051 0.625 0.75
0.375 0.5322781081291594 0.75
0.375 0.625 0.7170321180518914
0.5949528745115051 0.625 0.75
0.625 0.6031311780398696 0.75
0.625 0.625 0.7405542897279568
0.75 0.5 0.6878169292574871
0.681915429129383 0.5 0.75
0.625 0.5993315098685438 0.75
0.625 0.625 0.7365671934199253
0.7471555062580971 0.625 0.625
0.75 0.6200356544347133 0.625
0.7549167777491728 0.625 0.625
0.75 0.625 0.6314164500523936
0.75 0.5 0.6881786914256404
0.7984123747067216 0.5 0.625
0.25 0.625 0.6474675937336072
0.25 0.6464235277936062 0.625
0.23736898125387 0.625 0.625
0.375 0.6884633025209222 0.75
0.3111340996184748 0.625 0.75
0.25 0.625 0.6856960616082646
0.25 0.6823403168561031 0.625
0.3180889019617141 0.75 0.625
0.375 0.75 0.6848619717129851
0.5 0.6611176489055668 0.75
0.5 0.75 0.6581608011009583
0.375 0.75 0.6263299425904625
0.375 0.6303116142745673 0.75
0.5 0.75 0.6611729452875216
0.5 0.6574130311842099 0.75
0.5797426049727432 0.625 0.75
0.625 0.625 0.7323512408180065
0.625 0.7368952555403918 0.625
0.5927596811365066 0.75 0.625
0.75 0.625 0.6280603453496014
0.75 0.6281747231177134 0.625
0.625 0.7447603890422392 0.625
0.625 0.625 0.7404457053677943
0.375 0.75 0.6375516082035325
0.3627622956487221 0.75 0.625
0.375 0.7571969333294918 0.625
0.375 0.7598537692701169 0.625
0.375 0.75 0.6392050112035015
0.5 0.75 0.6703753416518645
0.5 0.7814760855014311 0.625
0.625 0.7666588368689486 0.625
0.625 0.75 0.6467719487361706
0.5 0.75 0.69019630137695
0.5 0.7998850407126421 0.625
0.375 0.3668402050267666 0.75
0.3679165756291979 0.375 0.75
0.375 0.375 0.7543749977786094
0.375 0.375 0.7642059784763104
0.375 0.3515333348306644 0.75
0.5 0.3140496191203266 0.75
0.5 0.375 0.7868974369665017
0.6069369156317492 0.375 0.75
0.5 0.3212853598925894 0.75
0.5 0.375 0.7865382097736048
0.375 0.3983693647386646 0.75
0.3460469084802867 0.5 0.75
0.375 0.5 0.7695296250611126
0.5 0.5 0.8297475984195123
0.5 0.375 0.7973343828300821
0.375 0.375 0.7571765313899373
0.375 0.5 0.7895897469793676
0.5 0.5 0.8318589895073044
0.625 0.5 0.8040837658235156
0.625 0.375 0.7660275129433257
0.5 0.375 0.7938027366271146
0.625 0.375 0.7655315292934666
0.6487907647870299 0.375 0.75
0.6992368996484269 0.5 0.75
0.625 0.5 0.7984647127516588
0.375 0.625 0.7773290084659291
0.335502664340584 0.625 0.75
0.3034606634226127 0.5 0.75
0.375 0.5 0.7994995194569353
0.5 0.5 0.8411762207704281
0.375 0.5 0.8013766971142275
0.375 0.625 0.7602593179204371
0.5 0.625 0.8000588415766378
0.625 0.5 0.7945946264312553
0.625 0.6143153187302808 0.75
0.6126507730078019 0.625 0.75
0.5 0.625 0.78802192254028
0.5 0.5 0.8367846637531106
0.625 0.6190165572939019 0.75
0.6939480397195664 0.5 0.75
0.625 0.5 0.7945993198698961
0.25 0.6428230197525412 0.75
0.25 0.625 0.7585145859962921
0.2422322746897425 0.625 0.75
0.3309040204757489 0.625 0.75
0.375 0.6689307947907794 0.75
0.375 0.625 0.7764403720155103
0.375 0.625 0.7732156426495251
0.375 0.6577507392714463 0.75
0.5 0.6845624163518454 0.75
0.5 0.625 0.7922213300868065
0.625 0.625 0.761786568454188
0.625 0.6406962676711236 0.75
0.5 0.6897116749037385 0.75
0.5 0.625 0.7985929905133606
POLYGONS 129 640
3 0 1 2
3 3 4 5
3 6 7 8
5 9 10 11 12 13
4 14 15 16 17
4 18 19 20 21
3 22 23 24
5 25 26 27 28 29
4 30 31 32 33
4 34 35 36 37
3 38 39 40
4 41 42 43 44
3 45 46 47
3 48 49 50
3 51 52 53
5 54 55 56 57 58
6 59 60 61 62 63 64
6 65 66 67 68 69 70
6 71 72 73 74 75 76
3 77 78 79
3 80 81 82
6 83 84 85 86 87 88
3 89 90 91
4 92 93 94 95
4 96 97 98 99
3 100 101 102
6 103 104 105 106 107 108
4 109 110 111 112
4 113 114 115 116
3 117 118 119
6 120 121 122 123 124 125
4 126 127 128 129
4 130 131 132 133
6 134 135 136 137 138 139
3 140 141 142
3 143 144 145
4 146 147 148 149
4 150 151 152 153
3 154 155 156
3 157 158 159
5 160 161 162 163 164
4 165 166 167 168
4 169 170 171 172
3 173 174 175
6 176 177 178 179 180 181
3 182 183 184
3 185 186 187
4 188 189 190 191
4 192 193 194 195
5 196 197 198 199 200
3 201 202 203
4 204 205 206 207
4 208 209 210 211
4 212 213 214 215
4 216 217 218 219
4 220 221 222 223
3 224 225 226
4 227 228 229 230
4 231 232 233 234
4 235 236 237 238
4 239 240 241 242
4 243 244 245 246
4 247 248 249 250
4 251 252 253 254
4 255 256 257 258
4 259 260 261 262
4 263 264 265 266
3 267 268 269
4 270 271 272 273
3 274 275 276
4 277 278 279 280
4 281 282 283 284
4 285 286 287 288
4 289 290 291 292
4 293 294 295 296
4 297 298 299 300
3 301 302 303
6 304 305 306 307 308 309
3 310 311 312
3 313 314 315
5 316 317 318 319 320
4 321 322 323 324
4 325 326 327 328
4 329 330 331 332
4 333 334 335 336
4 337 338 339 340
3 341 342 343
4 344 345 346 347
4 348 349 350 351
3 352 353 354
6 355 356 357 358 359 360
4 361 362 363 364
5 365 366 367 368 369
5 370 371 372 373 374
3 375 376 377
4 378 379 380 381
4 382 383 384 385
3 386 387 388
4 389 390 391 392
4 393 394 395 396
3 397 398 399
6 400 401 402 403 404 405
3 406 407 408
3 409 410 411
6 412 413 414 415 416 417
4 418 419 420 421
3 422 423 424
6 425 426 427 428 429 430
4 431 432 433 434
6 435 436 437 438 439 440
4 441 442 443 444
3 445 446 447
4 448 449 450 451
4 452 453 454 455
3 456 457 458
4 459 460 461 462
3 463 464 465
3 466 467 468
4 469 470 471 472
4 473 474 475 476
4 477 478 479 480
4 481 482 483 484
4 485 486 487 488
5 489 490 491 492 493
3 494 495 496
3 497 498 499
3 500 501 502
4 503 504 505 506
4 507 508 509 510
CELL_DATA 129
SCALARS c float
LOOKUP_TABLE default
1002003
1002004
1003002
1003003
1003004
1003005
1004002
1004003
1004004
1004005
1005002
1005003
1005004
2001003
2001004
2002002
2002003
2002004
2002005
2002006
2003001
2003002
2003003
2003005
2003006
2004001
2004002
2004005
2004006
2005001
2005002
2005003
2005004
2005005
2005006
2006002
2006003
2006004
2006005
3001002
3001003
3001004
3001005
3002001
3002002
3002003
3002004
3002005
3002006
3003001
3003002
3003006
3004001
3004006
3005001
3005002
3005003
3005005
3005006
3006002
3006003
3006004
3006005
4001002
4001003
4001004
4001005
4002001
4002002
4002004
4002005
4002006
4003001
4003006
4004001
4004006
4005001
4005002
4005003
4005004
4005005
4005006
4006002
4006003
4006004
4006005
5001002
5001003
5001004
5002001
5002002
5002003
5002004
5002005
5002006
5003001
5003002
5003003
5003005
5003006
5004001
5004002
5004003
5004004
5004005
5004006
5005001
5005002
5005003
5005004
5005005
5006002
5006003
5006004
6002002
6002003
6002004
6003002
6003003
6003004
6003005
6004002
6004003
6004004
6004005
6005001
6005002
6005003
6005004
SCALARS l float
LOOKUP_TABLE default
0
0
0
0
0
0
0
0
0
0
0
0
0
0
0
0
0
0
0
0
0
0
0
0
0
0
0
0
0
0
0
0
0
0
0
0
0
0
0
0
0
0
0
0
0
0
0
0
0
0
0
0
0
0
0
0
0
0
0
0
0
0
0
0
0
0
0
0
0
0
0
0
0
0
0
0
0
0
0
0
0
0
0
0
0
0
0
0
0
0
0
0
0
0
0
0
0
0
0
0
0
0
0
0
0
0
0
0
0
0
0
0
0
0
0
0
0
0
0
0
0
0
0
0
0
0
0
0
0
SCALARS cl float
LOOKUP_TABLE default
0
0
0
0
0
0
0
0
0
0
0
0
0
0
0
0
0
0
0
0
0
0
0
0
0
0
0
0
0
0
0
0
0
0
0
0
0
0
0
0
0
0
0
0
0
0
0
0
0
0
0
0
0
0
0
0
0
0
0
0
0
0
0
0
0
0
0
0
0
0
0
0
0
0
0
0
0
0
0
0
0
0
0
0
0
0
0
0
0
0
0
0
0
0
0
0
0
0
0
0
0
0
0
0
0
0
0
0
0
0
0
0
0
0
0
0
0
0
0
0
0
0
0
0
0
0
0
0
0
