# vtk DataFile Version 2.0
Interface from marching cubes
ASCII
DATASET POLYDATA
POINTS 744 float
0.5 0.375 0.2440839178580874
0.5 0.3673838644761089 0.25
0.485199646271251 0.375 0.25
0.5 0.3673838644761089 0.25
0.5 0.375 0.2440839178580874
0.5198326464177248 0.375 0.25
0.375 0.5 0.2422139483983099
0.375 0.4811155238208535 0.25
0.3650943035542819 0.5 0.25
0.25 0.5 0.3660053539897758
0.25 0.4828500904111615 0.375
0.2429867206261824 0.5 0.375
0.485199646271251 0.375 0.25
0.375 0.4811155238208534 0.25
0.375 0.5 0.2422139483983099
0.485199646271251 0.375 0.25
0.375 0.5 0.2422139483983099
0.5 0.375 0.2440839178580874
0.5 0.375 0.2440839178580874
0.375 0.5 0.2422139483983099
0.5 0.5 0.2021993978451392
0.625 0.4663451960512722 0.25
0.5198326464177248 0.375 0.25
0.5 0.375 0.2440839178580874
0.625 0.4663451960512722 0.25
0.5 0.375 0.2440839178580874
0.625 0.5 0.2385604460786307
0.625 0.5 0.2385604460786307
0.5 0.375 0.2440839178580874
0.5 0.5 0.2021993978451392
0.625 0.4663451960512722 0.25
0.625 0.5 0.2385604460786307
0.639352844353248 0.5 0.25
0.375 0.5 0.2422139483983099
0.3650943035542819 0.5 0.25
0.375 0.5263387618914412 0.25
0.375 0.5263387618914412 0.25
0.4608425374243326 0.625 0.25
0.5 0.625 0.2368396547601864
0.375 0.5263387618914412 0.25
0.5 0.625 0.2368396547601864
0.375 0.5 0.2422139483983099
0.375 0.5 0.2422139483983099
0.5 0.625 0.2368396547601864
0.5 0.5 0.2021993978451392
0.5369976887284135 0.625 0.25
0.625 0.5332758138377812 0.25
0.625 0.5 0.2385604460786307
0.5369976887284135 0.625 0.25
0.625 0.5 0.2385604460786307
0.5 0.625 0.2368396547601864
0.5 0.625 0.2368396547601864
0.625 0.5 0.2385604460786307
0.5 0.5 0.2021993978451392
0.639352844353248 0.5 0.25
0.625 0.5 0.2385604460786307
0.625 0.5332758138377812 0.25
0.5 0.625 0.2368396547601864
0.4608425374243326 0.625 0.25
0.5 0.6413866628055608 0.25
0.5369976887284135 0.625 0.25
0.5 0.625 0.2368396547601864
0.5 0.6413866628055608 0.25
0.5 0.25 0.367101821585313
0.5 0.2438496860489391 0.375
0.4847340262773359 0.25 0.375
0.5 0.2438496860489391 0.375
0.5 0.25 0.367101821585313
0.5210059381231559 0.25 0.375
0.375 0.375 0.2952820861427333
0.375 0.2953849193579479 0.375
0.2955190444731294 0.375 0.375
0.4847340262773359 0.25 0.375
0.375 0.2953849193579479 0.375
0.375 0.375 0.2952820861427333
0.5 0.25 0.367101821585313
0.4847340262773359 0.25 0.375
0.375 0.375 0.2952820861427333
0.5 0.25 0.367101821585313
0.375 0.375 0.2952820861427333
0.485199646271251 0.375 0.25
0.5 0.25 0.367101821585313
0.485199646271251 0.375 0.25
0.5 0.3673838644761089 0.25
0.5198326464177248 0.375 0.25
0.625 0.375 0.282783432558786
0.625 0.2820648211978094 0.375
0.5 0.3673838644761089 0.25
0.5198326464177248 0.375 0.25
0.625 0.2820648211978094 0.375
0.5 0.3673838644761089 0.25
0.625 0.2820648211978094 0.375
0.5210059381231559 0.25 0.375
0.5 0.3673838644761089 0.25
0.5210059381231559 0.25 0.375
0.5 0.25 0.367101821585313
0.625 0.2820648211978094 0.375
0.625 0.375 0.282783432558786
0.7135717805703465 0.375 0.375
0.2955190444731294 0.375 0.375
0.25 0.4828500904111615 0.375
0.25 0.5 0.3660053539897758
0.375 0.375 0.2952820861427333
0.2955190444731294 0.375 0.375
0.25 0.5 0.3660053539897758
0.375 0.375 0.2952820861427333
0.25 0.5 0.3660053539897758
0.3650943035542819 0.5 0.25
0.375 0.375 0.2952820861427333
0.3650943035542819 0.5 0.25
0.375 0.4811155238208535 0.25
0.485199646271251 0.375 0.25
0.375 0.375 0.2952820861427333
0.375 0.4811155238208534 0.25
0.5198326464177248 0.375 0.25
0.625 0.4663451960512722 0.25
0.625 0.375 0.282783432558786
0.639352844353248 0.5 0.25
0.75 0.5 0.3663382233321538
0.75 0.4806823779014136 0.375
0.625 0.4663451960512722 0.25
0.639352844353248 0.5 0.25
0.75 0.4806823779014136 0.375
0.625 0.4663451960512722 0.25
0.75 0.4806823779014136 0.375
0.7135717805703465 0.375 0.375
0.625 0.4663451960512722 0.25
0.7135717805703465 0.375 0.375
0.625 0.375 0.282783432558786
0.75 0.4806823779014136 0.375
0.75 0.5 0.3663382233321538
0.7565659250866771 0.5 0.375
0.25 0.5 0.3660053539897758
0.2429867206261824 0.5 0.375
0.25 0.5236333467777201 0.375
0.375 0.625 0.2809022248616723
0.25 0.5236333467777201 0.375
0.281630657837818 0.625 0.375
0.375 0.5263387618914412 0.25
0.25 0.5236333467777201 0.375
0.375 0.625 0.2809022248616723
0.375 0.5263387618914412 0.25
0.25 0.5 0.3660053539897758
0.25 0.5236333467777201 0.375
0.375 0.5263387618914412 0.25
0.3650943035542819 0.5 0.25
0.25 0.5 0.3660053539897758
0.375 0.5263387618914412 0.25
0.375 0.625 0.2809022248616723
0.4608425374243326 0.625 0.25
0.625 0.5332758138377812 0.25
0.5369976887284135 0.625 0.25
0.625 0.625 0.2830958856084441
0.625 0.5332758138377812 0.25
0.625 0.625 0.2830958856084441
0.7164739428916015 0.625 0.375
0.639352844353248 0.5 0.25
0.625 0.5332758138377812 0.25
0.7164739428916015 0.625 0.375
0.639352844353248 0.5 0.25
0.7164739428916015 0.625 0.375
0.75 0.5212303021831388 0.375
0.639352844353248 0.5 0.25
0.75 0.5212303021831388 0.375
0.75 0.5 0.3663382233321538
0.7565659250866771 0.5 0.375
0.75 0.5 0.3663382233321538
0.75 0.5212303021831388 0.375
0.375 0.625 0.2809022248616723
0.2816306578378181 0.625 0.375
0.375 0.7143543191777803 0.375
0.5 0.75 0.3656557935835239
0.375 0.7143543191777803 0.375
0.4790718046189878 0.75 0.375
0.5 0.6413866628055608 0.25
0.375 0.7143543191777803 0.375
0.5 0.75 0.3656557935835239
0.5 0.6413866628055608 0.25
0.375 0.625 0.2809022248616723
0.375 0.7143543191777803 0.375
0.5 0.6413866628055608 0.25
0.4608425374243326 0.625 0.25
0.375 0.625 0.2809022248616723
0.5 0.6413866628055608 0.25
0.5 0.75 0.3656557935835239
0.5226017400340561 0.75 0.375
0.5369976887284135 0.625 0.25
0.5 0.6413866628055608 0.25
0.5226017400340561 0.75 0.375
0.5369976887284135 0.625 0.25
0.5226017400340561 0.75 0.375
0.625 0.7164200867459071 0.375
0.5369976887284135 0.625 0.25
0.625 0.7164200867459071 0.375
0.625 0.625 0.2830958856084441
0.7164739428916015 0.625 0.375
0.625 0.625 0.2830958856084441
0.625 0.7164200867459071 0.375
0.5 0.75 0.3656557935835239
0.4790718046189878 0.75 0.375
0.5 0.7570476348210304 0.375
0.5226017400340561 0.75 0.375
0.5 0.75 0.3656557935835239
0.5 0.7570476348210304 0.375
0.375 0.25 0.4858535921945371
0.375 0.2443713427356625 0.5
0.3677694186865218 0.25 0.5
0.375 0.25 0.4858535921945371
0.4847340262773359 0.25 0.375
0.5 0.2438496860489391 0.375
0.375 0.25 0.4858535921945371
0.5 0.2438496860489391 0.375
0.375 0.2443713427356625 0.5
0.375 0.2443713427356625 0.5
0.5 0.2438496860489391 0.375
0.5 0.2025475920565153 0.5
0.5210059381231559 0.25 0.375
0.625 0.25 0.4629035208047531
0.625 0.2372374529533117 0.5
0.5210059381231559 0.25 0.375
0.625 0.2372374529533117 0.5
0.5 0.2438496860489391 0.375
0.5 0.2438496860489391 0.375
0.625 0.2372374529533117 0.5
0.5 0.2025475920565153 0.5
0.625 0.2372374529533117 0.5
0.625 0.25 0.4629035208047531
0.6407751963266687 0.25 0.5
0.25 0.375 0.4838449289568965
0.25 0.3666328119943029 0.5
0.2434245483615611 0.375 0.5
0.3677694186865218 0.25 0.5
0.25 0.3666328119943029 0.5
0.25 0.375 0.4838449289568965
0.375 0.25 0.4858535921945371
0.3677694186865218 0.25 0.5
0.25 0.375 0.4838449289568965
0.375 0.25 0.4858535921945371
0.25 0.375 0.4838449289568965
0.2955190444731294 0.375 0.375
0.375 0.25 0.4858535921945371
0.2955190444731294 0.375 0.375
0.375 0.2953849193579479 0.375
0.4847340262773359 0.25 0.375
0.375 0.25 0.4858535921945371
0.375 0.2953849193579479 0.375
0.5210059381231559 0.25 0.375
0.625 0.2820648211978094 0.375
0.625 0.25 0.4629035208047531
0.7135717805703465 0.375 0.375
0.75 0.375 0.481865730492382
0.75 0.3669067639313203 0.5
0.625 0.2820648211978094 0.375
0.7135717805703465 0.375 0.375
0.75 0.3669067639313203 0.5
0.625 0.2820648211978094 0.375
0.75 0.3669067639313203 0.5
0.6407751963266687 0.25 0.5
0.625 0.2820648211978094 0.375
0.6407751963266687 0.25 0.5
0.625 0.25 0.4629035208047531
0.75 0.3669067639313203 0.5
0.75 0.375 0.481865730492382
0.7561173930178133 0.375 0.5
0.25 0.4828500904111615 0.375
0.25 0.375 0.4838449289568965
0.2434245483615611 0.375 0.5
0.25 0.4828500904111615 0.375
0.2434245483615611 0.375 0.5
0.2429867206261824 0.5 0.375
0.2429867206261824 0.5 0.375
0.2434245483615611 0.375 0.5
0.2017630086583893 0.5 0.5
0.2955190444731294 0.375 0.375
0.25 0.375 0.4838449289568965
0.25 0.4828500904111615 0.375
0.7135717805703465 0.375 0.375
0.75 0.4806823779014136 0.375
0.75 0.375 0.481865730492382
0.75 0.375 0.481865730492382
0.75 0.4806823779014136 0.375
0.7565659250866771 0.5 0.375
0.75 0.375 0.481865730492382
0.7565659250866771 0.5 0.375
0.7561173930178133 0.375 0.5
0.7561173930178133 0.375 0.5
0.7565659250866771 0.5 0.375
0.7956142591690691 0.5 0.5
0.25 0.625 0.4640809264206001
0.25 0.5236333467777201 0.375
0.2429867206261824 0.5 0.375
0.25 0.625 0.4640809264206001
0.2429867206261824 0.5 0.375
0.2379267648836657 0.625 0.5
0.2379267648836657 0.625 0.5
0.2429867206261824 0.5 0.375
0.2017630086583893 0.5 0.5
0.25 0.5236333467777201 0.375
0.25 0.625 0.4640809264206001
0.281630657837818 0.625 0.375
0.75 0.5212303021831388 0.375
0.7164739428916015 0.625 0.375
0.75 0.625 0.4599470135548123
0.75 0.5212303021831388 0.375
0.75 0.625 0.4599470135548123
0.7646845913803327 0.625 0.5
0.75 0.5212303021831388 0.375
0.7646845913803327 0.625 0.5
0.7565659250866771 0.5 0.375
0.7565659250866771 0.5 0.375
0.7646845913803327 0.625 0.5
0.7956142591690691 0.5 0.5
0.25 0.625 0.4640809264206001
0.2379267648836657 0.625 0.5
0.25 0.6399679354520035 0.5
0.375 0.75 0.4825213170729412
0.25 0.6399679354520035 0.5
0.3674171028504484 0.75 0.5
0.375 0.7143543191777803 0.375
0.25 0.6399679354520035 0.5
0.375 0.75 0.4825213170729412
0.375 0.7143543191777803 0.375
0.25 0.625 0.4640809264206001
0.25 0.6399679354520035 0.5
0.375 0.7143543191777803 0.375
0.2816306578378181 0.625 0.375
0.25 0.625 0.4640809264206001
0.375 0.7143543191777803 0.375
0.375 0.75 0.4825213170729412
0.4790718046189878 0.75 0.375
0.625 0.7164200867459071 0.375
0.5226017400340561 0.75 0.375
0.625 0.75 0.4604012804014772
0.625 0.7164200867459071 0.375
0.625 0.75 0.4604012804014772
0.6442699838371724 0.75 0.5
[...]
CELL_DATA 248
SCALARS c float
LOOKUP_TABLE default
1002003
1002004
1003002
2003001
1003003
1003003
1003003
1003004
1003004
1003004
1003005
1004002
1004003
1004003
1004003
1004004
1004004
1004004
1004005
1005003
1005004
2001003
2001004
2002002
2002003
2002003
2002003
2002003
2002004
2002004
2002004
2002004
2002005
2003002
2003002
2003002
2003002
2003003
2003004
2003005
2003005
2003005
2003005
2003006
2004001
2004002
2004002
2004002
2004002
2004003
2004004
2004005
2004005
2004005
2004005
2004006
2005002
2005003
2005003
2005003
2005003
2005004
2005004
2005004
2005004
2005005
2006003
2006004
3001002
3001003
3001003
3001003
3001004
3001004
3001004
3001005
3002001
3002002
3002002
3002002
3002002
3002003
3002004
3002005
3002005
3002005
3002005
3002006
3003001
3003001
3003001
3003002
3003005
3003006
3003006
3003006
3004001
3004001
3004001
3004002
3004005
3004006
3004006
3004006
3005001
3005002
3005002
3005002
3005002
3005003
3005004
3005005
3005005
3005005
3005005
3005006
3006002
3006003
3006003
3006003
3006004
3006004
3006004
3006005
4001002
4001003
4001003
4001003
4001004
4001004
4001004
4001005
4002001
4002002
4002002
4002002
4002002
4002003
4002004
4002005
4002005
4002005
4002005
4002006
4003001
4003001
4003001
4003002
4003005
4003006
4003006
4003006
4004001
4004001
4004001
4004002
4004005
4004006
4004006
4004006
4005001
4005002
4005002
4005002
4005002
4005003
4005004
4005005
4005005
4005005
4005005
4005006
4006002
4006003
4006003
4006003
4006004
4006004
4006004
4006005
5001003
5001004
5002002
5002003
5002003
5002003
5002003
5002004
5002004
5002004
5002004
5002005
5003001
5003002
5003002
5003002
5003002
5003003
5003004
5003005
5003005
5003005
5003005
5003006
5004001
5004002
5004002
5004002
5004002
5004003
5004004
5004005
5004005
5004005
5004005
5004006
5005002
5005003
5005003
5005003
5005003
5005004
5005004
5005004
5005004
5005005
5006003
5006004
6002003
6002004
6003002
6003003
6003003
6003003
6003004
6003004
6003004
6003005
6004002
6004003
6004003
6004003
6004004
6004004
6004004
6004005
6005003
6005004
SCALARS l float
LOOKUP_TABLE default
0
0
0
0
0
0
0
0
0
0
0
0
0
0
0
0
0
0
0
0
0
0
0
0
0
0
0
0
0
0
0
0
0
0
0
0
0
0
0
0
0
0
0
0
0
0
0
0
0
0
0
0
0
0
0
0
0
0
0
0
0
0
0
0
0
0
0
0
0
0
0
0
0
0
0
0
0
0
0
0
0
0
0
0
0
0
0
0
0
0
0
0
0
0
0
0
0
0
0
0
0
0
0
0
0
0
0
0
0
0
0
0
0
0
0
0
0
0
0
0
0
0
0
0
0
0
0
0
0
0
0
0
0
0
0
0
0
0
0
0
0
0
0
0
0
0
0
0
0
0
0
0
0
0
0
0
0
0
0
0
0
0
0
0
0
0
0
0
0
0
0
0
0
0
0
0
0
0
0
0
0
0
0
0
0
0
0
0
0
0
0
0
0
0
0
0
0
0
0
0
0
0
0
0
0
0
0
0
0
0
0
0
0
0
0
0
0
0
0
0
0
0
0
0
0
0
0
0
0
0
0
0
0
0
0
0
0
0
0
0
0
0
0
0
0
0
0
0
SCALARS cl float
LOOKUP_TABLE default
0
0
0
0
0
0
0
0
0
0
0
0
0
0
0
0
0
0
0
0
0
0
0
0
0
0
0
0
0
0
0
0
0
0
0
0
0
0
0
0
0
0
0
0
0
0
0
0
0
0
0
0
0
0
0
0
0
0
0
0
0
0
0
0
0
0
0
0
0
0
0
0
0
0
0
0
0
0
0
0
0
0
0
0
0
0
0
0
0
0
0
0
0
0
0
0
0
0
0
0
0
0
0
0
0
0
0
0
0
0
0
0
0
0
0
0
0
0
0
0
0
0
0
0
0
0
0
0
0
0
0
0
0
0
0
0
0
0
0
0
0
0
0
0
0
0
0
0
0
0
0
0
0
0
0
0
0
0
0
0
0
0
0
0
0
0
0
0
0
0
0
0
0
0
0
0
0
0
0
0
0
0
0
0
0
0
0
0
0
0
0
0
0
0
0
0
0
0
0
0
0
0
0
0
0
0
0
0
0
0
0
0
0
0
0
0
0
0
0
0
0
0
0
0
0
0
0
0
0
0
0
0
0
0
0
0
0
0
0
0
0
0
0
0
0
0
0
0
POINT_DATA 744
VECTORS nn float
-0.04285749455032202 -0.3039993560754805 -0.6421272549232084
-0.04297137637968962 -0.3134207177744668 -0.6457709181944705
-0.07400062472285665 -0.3089752721705387 -0.648165685038988
-0.04297137637968962 -0.3134207177744668 -0.6457709181944706
-0.04285749455032202 -0.3039993560754805 -0.6421272549232084
0.01024715516646267 -0.3073623879126006 -0.6479832489929188
-0.304828130937554 -0.05807375248146358 -0.6340507926160687
-0.3110732016674039 -0.09515072651993195 -0.6423387729192518
-0.3173903996569321 -0.05834641853935323 -0.6388559538632564
-0.6466407165113927 -0.05364172980424065 -0.3164996134074173
-0.6503845937168625 -0.0877317512466701 -0.3114416456783999
-0.6419055139593908 -0.05303941879112679 -0.3055026342165086
-0.07400062472285664 -0.3089752721705387 -0.648165685038988
-0.3110732016674039 -0.09515072651993198 -0.6423387729192517
-0.304828130937554 -0.05807375248146358 -0.6340507926160687
-0.07400062472285664 -0.3089752721705387 -0.648165685038988
-0.304828130937554 -0.05807375248146358 -0.6340507926160687
-0.04285749455032202 -0.3039993560754805 -0.6421272549232084
-0.04285749455032202 -0.3039993560754805 -0.6421272549232084
-0.304828130937554 -0.05807375248146358 -0.6340507926160687
-0.01519635929338993 -0.03098059447776657 -0.5275477367862464
0.3132867450590118 -0.08092253545201185 -0.6211532494412089
0.01024715516646266 -0.3073623879126006 -0.6479832489929188
-0.04285749455032202 -0.3039993560754805 -0.6421272549232084
0.3132867450590118 -0.08092253545201185 -0.6211532494412089
-0.04285749455032202 -0.3039993560754805 -0.6421272549232084
0.3060847451613218 -0.00434186814254829 -0.6048930926806741
0.3060847451613218 -0.00434186814254829 -0.6048930926806741
-0.04285749455032202 -0.3039993560754805 -0.6421272549232084
-0.01519635929338993 -0.03098059447776657 -0.5275477367862464
0.3132867450590118 -0.08092253545201185 -0.6211532494412089
0.3060847451613218 -0.00434186814254829 -0.6048930926806741
0.3243968200677602 -0.004270924234370649 -0.6107455133124741
-0.304828130937554 -0.05807375248146358 -0.6340507926160687
-0.3173903996569321 -0.05834641853935323 -0.6388559538632564
-0.3097229784107663 0.01890255957008285 -0.6403229323481823
-0.3097229784107663 0.01890255957008283 -0.6403229323481824
-0.09006627383872851 0.3193493963449211 -0.616029234980801
0.00342703538108505 0.3081026497981442 -0.5997882109107711
-0.3097229784107663 0.01890255957008283 -0.6403229323481824
0.00342703538108505 0.3081026497981442 -0.5997882109107711
-0.304828130937554 -0.05807375248146358 -0.6340507926160687
-0.304828130937554 -0.05807375248146358 -0.6340507926160687
0.00342703538108505 0.3081026497981442 -0.5997882109107711
-0.01519635929338993 -0.03098059447776657 -0.5275477367862464
0.09276085717004875 0.3157051500022497 -0.6149799095975566
0.3151583325620086 0.07671008372092344 -0.6178111407624127
0.3060847451613218 -0.00434186814254829 -0.6048930926806741
0.09276085717004875 0.3157051500022497 -0.6149799095975566
0.3060847451613218 -0.00434186814254829 -0.6048930926806741
0.00342703538108505 0.3081026497981442 -0.5997882109107711
0.00342703538108505 0.3081026497981442 -0.5997882109107711
0.3060847451613218 -0.00434186814254829 -0.6048930926806741
-0.01519635929338993 -0.03098059447776657 -0.5275477367862464
0.3243968200677602 -0.004270924234370649 -0.610745513312474
0.3060847451613218 -0.00434186814254829 -0.6048930926806741
0.3151583325620086 0.07671008372092344 -0.6178111407624127
0.00342703538108505 0.3081026497981442 -0.5997882109107711
-0.09006627383872852 0.3193493963449211 -0.6160292349808011
0.002901518338613751 0.328953087186054 -0.6068867291927018
0.09276085717004874 0.3157051500022497 -0.6149799095975564
0.00342703538108505 0.3081026497981442 -0.5997882109107711
0.002901518338613751 0.328953087186054 -0.6068867291927019
-0.0489555040494454 -0.6433021736517941 -0.3125472870270543
-0.04923813838050995 -0.6397008732105187 -0.3025068623676712
-0.0801281386431336 -0.646467728058572 -0.3076009356318398
-0.04923813838050995 -0.6397008732105187 -0.3025068623676712
-0.0489555040494454 -0.6433021736517941 -0.3125472870270543
0.008399593422220068 -0.6443571127206116 -0.306866648228829
-0.29684287471029 -0.2972712001428763 -0.4450786104755554
-0.2944446390120439 -0.4459857299938779 -0.2965582538379996
-0.4481651678276856 -0.2988015239540508 -0.3008182557126375
-0.08012813864313359 -0.646467728058572 -0.3076009356318398
-0.2944446390120439 -0.4459857299938779 -0.2965582538379996
-0.29684287471029 -0.2972712001428763 -0.4450786104755554
-0.0489555040494454 -0.6433021736517941 -0.3125472870270543
-0.08012813864313359 -0.646467728058572 -0.3076009356318398
-0.29684287471029 -0.2972712001428763 -0.4450786104755554
-0.0489555040494454 -0.6433021736517941 -0.3125472870270543
-0.29684287471029 -0.2972712001428763 -0.4450786104755554
-0.07400062472285665 -0.3089752721705387 -0.648165685038988
-0.0489555040494454 -0.6433021736517941 -0.3125472870270543
-0.07400062472285665 -0.3089752721705387 -0.648165685038988
-0.04297137637968962 -0.3134207177744668 -0.6457709181944705
0.01024715516646267 -0.3073623879126006 -0.6479832489929188
0.2927336366884049 -0.2801714162288779 -0.4799127380724956
0.2941358839160594 -0.4764853560913214 -0.2833338066232157
-0.04297137637968962 -0.3134207177744668 -0.6457709181944706
0.01024715516646267 -0.3073623879126006 -0.6479832489929188
0.2941358839160594 -0.4764853560913214 -0.2833338066232157
-0.04297137637968962 -0.3134207177744668 -0.6457709181944706
0.2941358839160594 -0.4764853560913214 -0.2833338066232157
0.008399593422220054 -0.6443571127206116 -0.306866648228829
-0.04297137637968962 -0.3134207177744668 -0.6457709181944706
0.008399593422220054 -0.6443571127206116 -0.306866648228829
-0.0489555040494454 -0.6433021736517941 -0.3125472870270543
0.2941358839160594 -0.4764853560913214 -0.2833338066232157
0.2927336366884049 -0.2801714162288779 -0.4799127380724956
0.4863823566726696 -0.2717022960913008 -0.2701470424779305
-0.4481651678276856 -0.2988015239540508 -0.3008182557126375
-0.6503845937168626 -0.0877317512466701 -0.3114416456783999
-0.6466407165113927 -0.05364172980424065 -0.3164996134074173
-0.29684287471029 -0.2972712001428763 -0.4450786104755554
-0.4481651678276856 -0.2988015239540508 -0.3008182557126375
-0.6466407165113927 -0.05364172980424065 -0.3164996134074173
-0.29684287471029 -0.2972712001428763 -0.4450786104755554
-0.6466407165113927 -0.05364172980424065 -0.3164996134074173
-0.3173903996569321 -0.05834641853935323 -0.6388559538632564
-0.29684287471029 -0.2972712001428763 -0.4450786104755554
-0.3173903996569321 -0.05834641853935323 -0.6388559538632564
-0.3110732016674039 -0.09515072651993195 -0.6423387729192518
-0.07400062472285664 -0.3089752721705387 -0.648165685038988
-0.29684287471029 -0.2972712001428763 -0.4450786104755554
-0.3110732016674039 -0.09515072651993198 -0.6423387729192517
0.01024715516646266 -0.3073623879126006 -0.6479832489929188
0.3132867450590118 -0.08092253545201185 -0.6211532494412089
0.2927336366884049 -0.2801714162288779 -0.4799127380724956
0.3243968200677602 -0.004270924234370649 -0.6107455133124741
0.6560429066344733 -0.01430641222638892 -0.3019176006856131
0.6612913379810501 -0.05575090665427068 -0.2945378467770709
0.3132867450590118 -0.08092253545201185 -0.6211532494412089
0.3243968200677602 -0.004270924234370649 -0.6107455133124741
0.6612913379810501 -0.05575090665427068 -0.2945378467770709
0.3132867450590118 -0.08092253545201185 -0.6211532494412089
0.6612913379810501 -0.05575090665427068 -0.2945378467770709
0.4863823566726696 -0.2717022960913008 -0.2701470424779305
0.3132867450590118 -0.08092253545201185 -0.6211532494412089
0.4863823566726696 -0.2717022960913008 -0.2701470424779305
0.2927336366884049 -0.2801714162288779 -0.4799127380724956
0.6612913379810501 -0.0557509066542707 -0.2945378467770709
0.6560429066344733 -0.01430641222638892 -0.3019176006856131
0.6515766916450831 -0.01509430791548301 -0.2906849032527458
-0.6466407165113927 -0.05364172980424065 -0.3164996134074173
-0.6419055139593908 -0.05303941879112678 -0.3055026342165086
-0.647910284956549 0.01425644580505558 -0.3088603339969043
-0.2859173836418926 0.3040063254973344 -0.4806578416146665
-0.647910284956549 0.01425644580505558 -0.3088603339969043
-0.4823753448498821 0.3006568019178966 -0.2806746058421568
-0.3097229784107663 0.01890255957008285 -0.6403229323481823
-0.647910284956549 0.01425644580505558 -0.3088603339969043
-0.2859173836418926 0.3040063254973344 -0.4806578416146665
-0.3097229784107663 0.01890255957008285 -0.6403229323481823
-0.6466407165113927 -0.05364172980424065 -0.3164996134074173
-0.647910284956549 0.01425644580505558 -0.3088603339969043
-0.3097229784107663 0.01890255957008285 -0.6403229323481823
-0.3173903996569321 -0.05834641853935323 -0.6388559538632564
-0.6466407165113927 -0.05364172980424065 -0.3164996134074173
-0.3097229784107663 0.01890255957008283 -0.6403229323481824
-0.2859173836418926 0.3040063254973344 -0.4806578416146665
-0.09006627383872851 0.3193493963449211 -0.616029234980801
0.3151583325620086 0.07671008372092344 -0.6178111407624127
0.09276085717004875 0.3157051500022497 -0.6149799095975566
0.2943173699953577 0.2899113424669086 -0.4740914297704719
0.3151583325620086 0.07671008372092344 -0.6178111407624127
0.2943173699953577 0.2899113424669086 -0.4740914297704719
0.4809723035661146 0.2758280355607936 -0.2956059347541358
0.3243968200677602 -0.004270924234370649 -0.610745513312474
0.3151583325620086 0.07671008372092344 -0.6178111407624127
0.4809723035661146 0.2758280355607936 -0.2956059347541358
0.3243968200677602 -0.004270924234370649 -0.610745513312474
0.4809723035661146 0.2758280355607936 -0.2956059347541358
0.6576265128170499 0.03520607757741089 -0.2988569519802114
0.3243968200677602 -0.004270924234370649 -0.610745513312474
0.6576265128170499 0.03520607757741089 -0.2988569519802114
0.6560429066344733 -0.01430641222638892 -0.3019176006856131
0.6515766916450831 -0.01509430791548301 -0.2906849032527458
0.6560429066344733 -0.01430641222638892 -0.3019176006856131
0.6576265128170498 0.03520607757741088 -0.2988569519802114
-0.2859173836418926 0.3040063254973344 -0.4806578416146665
-0.4823753448498822 0.3006568019178966 -0.2806746058421568
-0.2748939848927956 0.4915842369312378 -0.2719206352319356
-0.009841901431522103 0.6631534411591498 -0.2988448164246384
-0.2748939848927956 0.4915842369312378 -0.2719206352319356
-0.05595752842629383 0.6682758075658561 -0.2912822311865182
0.002901518338613751 0.328953087186054 -0.6068867291927018
-0.2748939848927956 0.4915842369312378 -0.2719206352319356
-0.009841901431522103 0.6631534411591498 -0.2988448164246384
0.002901518338613751 0.328953087186054 -0.6068867291927018
-0.2859173836418926 0.3040063254973344 -0.4806578416146665
-0.2748939848927956 0.4915842369312378 -0.2719206352319356
0.002901518338613751 0.328953087186054 -0.6068867291927018
-0.09006627383872852 0.3193493963449211 -0.6160292349808011
-0.2859173836418926 0.3040063254973344 -0.4806578416146665
0.002901518338613751 0.328953087186054 -0.6068867291927019
-0.009841901431522103 0.6631534411591498 -0.2988448164246384
0.04216771192727255 0.6644834790852832 -0.2954315853181631
0.09276085717004874 0.3157051500022497 -0.6149799095975564
0.002901518338613751 0.328953087186054 -0.6068867291927019
0.04216771192727255 0.6644834790852832 -0.2954315853181631
0.09276085717004874 0.3157051500022497 -0.6149799095975564
0.04216771192727255 0.6644834790852832 -0.2954315853181631
0.2765609424258166 0.4830636743185667 -0.295120266417621
0.09276085717004874 0.3157051500022497 -0.6149799095975564
0.2765609424258166 0.4830636743185667 -0.295120266417621
0.2943173699953577 0.2899113424669086 -0.4740914297704719
0.4809723035661146 0.2758280355607936 -0.2956059347541358
0.2943173699953577 0.2899113424669086 -0.4740914297704719
0.2765609424258166 0.4830636743185667 -0.295120266417621
-0.009841901431522103 0.6631534411591498 -0.2988448164246384
-0.05595752842629383 0.6682758075658561 -0.2912822311865182
-0.01058920064013124 0.6579635826450945 -0.2863995115966182
0.04216771192727255 0.6644834790852832 -0.2954315853181631
-0.009841901431522103 0.6631534411591498 -0.2988448164246384
-0.01058920064013124 0.6579635826450945 -0.2863995115966182
-0.3072289301853589 -0.6542615247083746 -0.07545159449866481
-0.3025188990592578 -0.6485189344422491 -0.04683486637608327
-0.3117762107284927 -0.6520710378342017 -0.04695634793185262
-0.3072289301853589 -0.6542615247083746 -0.07545159449866481
-0.0801281386431336 -0.646467728058572 -0.3076009356318398
-0.04923813838050995 -0.6397008732105187 -0.3025068623676712
-0.3072289301853589 -0.6542615247083746 -0.07545159449866481
-0.04923813838050995 -0.6397008732105187 -0.3025068623676712
-0.3025188990592578 -0.6485189344422491 -0.04683486637608327
-0.3025188990592578 -0.6485189344422491 -0.04683486637608327
-0.04923813838050995 -0.6397008732105187 -0.3025068623676712
-0.03194080315660203 -0.5288330940812183 -0.02778121159229879
0.008399593422220068 -0.6443571127206116 -0.306866648228829
0.316862865078703 -0.606127718083294 -0.08871783762778969
0.3094596440921607 -0.5881442144641913 -0.00267352950607089
0.008399593422220068 -0.6443571127206116 -0.306866648228829
0.3094596440921607 -0.5881442144641913 -0.00267352950607089
-0.04923813838050995 -0.6397008732105187 -0.3025068623676712
-0.04923813838050995 -0.6397008732105187 -0.3025068623676712
0.3094596440921607 -0.5881442144641913 -0.00267352950607089
-0.03194080315660203 -0.5288330940812184 -0.02778121159229879
0.3094596440921606 -0.5881442144641912 -0.00267352950607089
0.316862865078703 -0.606127718083294 -0.08871783762778969
0.3297994250766198 -0.5932515365526596 -0.002268388473793553
-0.6475650429387052 -0.3156037736549274 -0.0812902273862364
-0.6436896723216501 -0.3207605995880092 -0.04794793235289024
-0.6393875461385389 -0.3107876549576942 -0.0478874443010584
-0.3117762107284927 -0.6520710378342016 -0.04695634793185262
-0.6436896723216501 -0.3207605995880092 -0.04794793235289024
-0.6475650429387052 -0.3156037736549274 -0.0812902273862364
-0.3072289301853589 -0.6542615247083746 -0.07545159449866481
-0.3117762107284927 -0.6520710378342016 -0.04695634793185262
-0.6475650429387052 -0.3156037736549274 -0.0812902273862364
-0.3072289301853589 -0.6542615247083746 -0.07545159449866481
-0.6475650429387052 -0.3156037736549274 -0.0812902273862364
-0.4481651678276856 -0.2988015239540508 -0.3008182557126375
-0.3072289301853589 -0.6542615247083746 -0.07545159449866481
-0.4481651678276856 -0.2988015239540508 -0.3008182557126375
-0.2944446390120439 -0.4459857299938779 -0.2965582538379996
-0.08012813864313359 -0.646467728058572 -0.3076009356318398
-0.3072289301853589 -0.6542615247083746 -0.07545159449866481
-0.2944446390120439 -0.4459857299938779 -0.2965582538379996
0.008399593422220054 -0.6443571127206116 -0.306866648228829
0.2941358839160594 -0.4764853560913214 -0.2833338066232157
0.316862865078703 -0.606127718083294 -0.08871783762778969
0.4863823566726696 -0.2717022960913008 -0.2701470424779305
0.6597755229418398 -0.2989884912684543 -0.05176648413971698
0.6548805561098731 -0.3054395274842117 -0.01282818600593529
0.2941358839160594 -0.4764853560913214 -0.2833338066232157
0.4863823566726696 -0.2717022960913008 -0.2701470424779305
0.6548805561098731 -0.3054395274842117 -0.01282818600593529
0.2941358839160594 -0.4764853560913214 -0.2833338066232157
0.6548805561098731 -0.3054395274842117 -0.01282818600593529
0.3297994250766197 -0.5932515365526596 -0.002268388473793553
0.2941358839160594 -0.4764853560913214 -0.2833338066232157
0.3297994250766197 -0.5932515365526596 -0.002268388473793553
0.316862865078703 -0.606127718083294 -0.08871783762778969
0.6548805561098732 -0.3054395274842117 -0.01282818600593529
0.6597755229418398 -0.2989884912684543 -0.05176648413971698
0.6505492316682153 -0.2956875524499913 -0.01375341068548993
-0.6503845937168625 -0.0877317512466701 -0.3114416456783999
-0.6475650429387052 -0.3156037736549274 -0.0812902273862364
-0.6393875461385389 -0.3107876549576942 -0.04788744430105839
-0.6503845937168625 -0.0877317512466701 -0.3114416456783999
-0.6393875461385389 -0.3107876549576942 -0.04788744430105839
-0.6419055139593908 -0.05303941879112679 -0.3055026342165086
-0.6419055139593908 -0.05303941879112679 -0.3055026342165086
-0.6393875461385389 -0.3107876549576942 -0.04788744430105839
-0.5260370345410976 -0.02250250386738483 -0.02428492541271557
-0.4481651678276856 -0.2988015239540508 -0.3008182557126375
-0.6475650429387052 -0.3156037736549274 -0.0812902273862364
-0.6503845937168626 -0.0877317512466701 -0.3114416456783999
0.4863823566726696 -0.2717022960913008 -0.2701470424779305
0.6612913379810501 -0.05575090665427068 -0.2945378467770709
0.6597755229418398 -0.2989884912684543 -0.05176648413971698
0.6597755229418398 -0.2989884912684543 -0.05176648413971698
0.6612913379810501 -0.0557509066542707 -0.2945378467770709