# vtk DataFile Version 2.0
Interface from marching cubes
ASCII
DATASET POLYDATA
POINTS 744 float
0.5 0.375 0.2440839178580873
0.5 0.3673838644761087 0.25
0.4851996462712507 0.375 0.25
0.5 0.3673838644761087 0.25
0.5 0.375 0.2440839178580873
0.519832646417725 0.375 0.25
0.375 0.5 0.2422139483983101
0.375 0.4811155238208539 0.25
0.3650943035542821 0.5 0.25
0.25 0.5 0.3660053539897759
0.25 0.4828500904111615 0.375
0.2429867206261824 0.5 0.375
0.4851996462712507 0.375 0.25
0.375 0.4811155238208539 0.25
0.375 0.5 0.2422139483983101
0.4851996462712507 0.375 0.25
0.375 0.5 0.2422139483983101
0.5 0.375 0.2440839178580873
0.5 0.375 0.2440839178580873
0.375 0.5 0.2422139483983101
0.5 0.5 0.2021993978451393
0.625 0.4663451960512732 0.25
0.519832646417725 0.375 0.25
0.5 0.375 0.2440839178580873
0.625 0.4663451960512732 0.25
0.5 0.375 0.2440839178580873
0.625 0.5 0.2385604460786311
0.625 0.5 0.2385604460786311
0.5 0.375 0.2440839178580873
0.5 0.5 0.2021993978451393
0.625 0.4663451960512732 0.25
0.625 0.5 0.2385604460786311
0.6393528443532476 0.5 0.25
0.375 0.5 0.2422139483983101
0.3650943035542821 0.5 0.25
0.375 0.5263387618914406 0.25
0.375 0.5263387618914406 0.25
0.4608425374243331 0.625 0.25
0.5 0.625 0.2368396547601866
0.375 0.5263387618914406 0.25
0.5 0.625 0.2368396547601866
0.375 0.5 0.2422139483983101
0.375 0.5 0.2422139483983101
0.5 0.625 0.2368396547601866
0.5 0.5 0.2021993978451393
0.5369976887284128 0.625 0.25
0.625 0.5332758138377802 0.25
0.625 0.5 0.2385604460786311
0.5369976887284128 0.625 0.25
0.625 0.5 0.2385604460786311
0.5 0.625 0.2368396547601866
0.5 0.625 0.2368396547601866
0.625 0.5 0.2385604460786311
0.5 0.5 0.2021993978451393
0.6393528443532476 0.5 0.25
0.625 0.5 0.2385604460786311
0.625 0.5332758138377802 0.25
0.5 0.625 0.2368396547601866
0.4608425374243331 0.625 0.25
0.5 0.6413866628055606 0.25
0.5369976887284128 0.625 0.25
0.5 0.625 0.2368396547601866
0.5 0.6413866628055606 0.25
0.5 0.25 0.3671018215853128
0.5 0.243849686048939 0.375
0.4847340262773356 0.25 0.375
0.5 0.243849686048939 0.375
0.5 0.25 0.3671018215853128
0.521005938123156 0.25 0.375
0.375 0.375 0.2952820861427332
0.375 0.2953849193579475 0.375
0.2955190444731292 0.375 0.375
0.4847340262773356 0.25 0.375
0.375 0.2953849193579475 0.375
0.375 0.375 0.2952820861427332
0.5 0.25 0.3671018215853128
0.4847340262773356 0.25 0.375
0.375 0.375 0.2952820861427332
0.5 0.25 0.3671018215853128
0.375 0.375 0.2952820861427332
0.4851996462712507 0.375 0.25
0.5 0.25 0.3671018215853128
0.4851996462712507 0.375 0.25
0.5 0.3673838644761087 0.25
0.519832646417725 0.375 0.25
0.625 0.375 0.2827834325587862
0.625 0.2820648211978097 0.375
0.5 0.3673838644761087 0.25
0.519832646417725 0.375 0.25
0.625 0.2820648211978097 0.375
0.5 0.3673838644761087 0.25
0.625 0.2820648211978097 0.375
0.521005938123156 0.25 0.375
0.5 0.3673838644761087 0.25
0.521005938123156 0.25 0.375
0.5 0.25 0.3671018215853128
0.625 0.2820648211978097 0.375
0.625 0.375 0.2827834325587862
0.7135717805703462 0.375 0.375
0.2955190444731292 0.375 0.375
0.25 0.4828500904111615 0.375
0.25 0.5 0.3660053539897759
0.375 0.375 0.2952820861427332
0.2955190444731292 0.375 0.375
0.25 0.5 0.3660053539897759
0.375 0.375 0.2952820861427332
0.25 0.5 0.3660053539897759
0.3650943035542821 0.5 0.25
0.375 0.375 0.2952820861427332
0.3650943035542821 0.5 0.25
0.375 0.4811155238208539 0.25
0.4851996462712507 0.375 0.25
0.375 0.375 0.2952820861427332
0.375 0.4811155238208539 0.25
0.519832646417725 0.375 0.25
0.625 0.4663451960512732 0.25
0.625 0.375 0.2827834325587862
0.6393528443532476 0.5 0.25
0.75 0.5 0.3663382233321541
0.75 0.4806823779014143 0.375
0.625 0.4663451960512732 0.25
0.6393528443532476 0.5 0.25
0.75 0.4806823779014143 0.375
0.625 0.4663451960512732 0.25
0.75 0.4806823779014143 0.375
0.7135717805703462 0.375 0.375
0.625 0.4663451960512732 0.25
0.7135717805703462 0.375 0.375
0.625 0.375 0.2827834325587862
0.75 0.4806823779014143 0.375
0.75 0.5 0.3663382233321541
0.7565659250866769 0.5 0.375
0.25 0.5 0.3660053539897759
0.2429867206261824 0.5 0.375
0.25 0.52363334677772 0.375
0.375 0.625 0.2809022248616724
0.25 0.52363334677772 0.375
0.2816306578378181 0.625 0.375
0.375 0.5263387618914406 0.25
0.25 0.52363334677772 0.375
0.375 0.625 0.2809022248616724
0.375 0.5263387618914406 0.25
0.25 0.5 0.3660053539897759
0.25 0.52363334677772 0.375
0.375 0.5263387618914406 0.25
0.3650943035542821 0.5 0.25
0.25 0.5 0.3660053539897759
0.375 0.5263387618914406 0.25
0.375 0.625 0.2809022248616724
0.4608425374243331 0.625 0.25
0.625 0.5332758138377802 0.25
0.5369976887284128 0.625 0.25
0.625 0.625 0.2830958856084443
0.625 0.5332758138377802 0.25
0.625 0.625 0.2830958856084443
0.7164739428916015 0.625 0.375
0.6393528443532476 0.5 0.25
0.625 0.5332758138377802 0.25
0.7164739428916015 0.625 0.375
0.6393528443532476 0.5 0.25
0.7164739428916015 0.625 0.375
0.75 0.5212303021831383 0.375
0.6393528443532476 0.5 0.25
0.75 0.5212303021831383 0.375
0.75 0.5 0.3663382233321541
0.7565659250866769 0.5 0.375
0.75 0.5 0.3663382233321541
0.75 0.5212303021831383 0.375
0.375 0.625 0.2809022248616724
0.2816306578378181 0.625 0.375
0.375 0.7143543191777804 0.375
0.5 0.75 0.3656557935835239
0.375 0.7143543191777804 0.375
0.4790718046189877 0.75 0.375
0.5 0.6413866628055606 0.25
0.375 0.7143543191777804 0.375
0.5 0.75 0.3656557935835239
0.5 0.6413866628055606 0.25
0.375 0.625 0.2809022248616724
0.375 0.7143543191777804 0.375
0.5 0.6413866628055606 0.25
0.4608425374243331 0.625 0.25
0.375 0.625 0.2809022248616724
0.5 0.6413866628055606 0.25
0.5 0.75 0.3656557935835239
0.5226017400340562 0.75 0.375
0.5369976887284128 0.625 0.25
0.5 0.6413866628055606 0.25
0.5226017400340562 0.75 0.375
0.5369976887284128 0.625 0.25
0.5226017400340562 0.75 0.375
0.625 0.7164200867459071 0.375
0.5369976887284128 0.625 0.25
0.625 0.7164200867459071 0.375
0.625 0.625 0.2830958856084443
0.7164739428916015 0.625 0.375
0.625 0.625 0.2830958856084443
0.625 0.7164200867459071 0.375
0.5 0.75 0.3656557935835239
0.4790718046189877 0.75 0.375
0.5 0.7570476348210305 0.375
0.5226017400340562 0.75 0.375
0.5 0.75 0.3656557935835239
0.5 0.7570476348210305 0.375
0.375 0.25 0.4858535921945363
0.375 0.2443713427356622 0.5
0.3677694186865214 0.25 0.5
0.375 0.25 0.4858535921945363
0.4847340262773356 0.25 0.375
0.5 0.243849686048939 0.375
0.375 0.25 0.4858535921945363
0.5 0.243849686048939 0.375
0.375 0.2443713427356622 0.5
0.375 0.2443713427356622 0.5
0.5 0.243849686048939 0.375
0.5 0.2025475920565155 0.5
0.521005938123156 0.25 0.375
0.625 0.25 0.4629035208047538
0.625 0.2372374529533119 0.5
0.521005938123156 0.25 0.375
0.625 0.2372374529533119 0.5
0.5 0.243849686048939 0.375
0.5 0.243849686048939 0.375
0.625 0.2372374529533119 0.5
0.5 0.2025475920565155 0.5
0.625 0.2372374529533119 0.5
0.625 0.25 0.4629035208047538
0.6407751963266684 0.25 0.5
0.25 0.375 0.4838449289568957
0.25 0.3666328119943025 0.5
0.2434245483615608 0.375 0.5
0.3677694186865214 0.25 0.5
0.25 0.3666328119943025 0.5
0.25 0.375 0.4838449289568957
0.375 0.25 0.4858535921945363
0.3677694186865214 0.25 0.5
0.25 0.375 0.4838449289568957
0.375 0.25 0.4858535921945363
0.25 0.375 0.4838449289568957
0.2955190444731292 0.375 0.375
0.375 0.25 0.4858535921945363
0.2955190444731292 0.375 0.375
0.375 0.2953849193579475 0.375
0.4847340262773356 0.25 0.375
0.375 0.25 0.4858535921945363
0.375 0.2953849193579475 0.375
0.521005938123156 0.25 0.375
0.625 0.2820648211978097 0.375
0.625 0.25 0.4629035208047538
0.7135717805703462 0.375 0.375
0.75 0.375 0.4818657304923814
0.75 0.3669067639313199 0.5
0.625 0.2820648211978097 0.375
0.7135717805703462 0.375 0.375
0.75 0.3669067639313199 0.5
0.625 0.2820648211978097 0.375
0.75 0.3669067639313199 0.5
0.6407751963266684 0.25 0.5
0.625 0.2820648211978097 0.375
0.6407751963266684 0.25 0.5
0.625 0.25 0.4629035208047538
0.75 0.3669067639313199 0.5
0.75 0.375 0.4818657304923814
0.7561173930178137 0.375 0.5
0.25 0.4828500904111615 0.375
0.25 0.375 0.4838449289568957
0.2434245483615608 0.375 0.5
0.25 0.4828500904111615 0.375
0.2434245483615608 0.375 0.5
0.2429867206261824 0.5 0.375
0.2429867206261824 0.5 0.375
0.2434245483615608 0.375 0.5
0.2017630086583892 0.5 0.5
0.2955190444731292 0.375 0.375
0.25 0.375 0.4838449289568957
0.25 0.4828500904111615 0.375
0.7135717805703462 0.375 0.375
0.75 0.4806823779014143 0.375
0.75 0.375 0.4818657304923814
0.75 0.375 0.4818657304923814
0.75 0.4806823779014143 0.375
0.7565659250866769 0.5 0.375
0.75 0.375 0.4818657304923814
0.7565659250866769 0.5 0.375
0.7561173930178137 0.375 0.5
0.7561173930178137 0.375 0.5
0.7565659250866769 0.5 0.375
0.7956142591690692 0.5 0.5
0.25 0.625 0.4640809264205999
0.25 0.52363334677772 0.375
0.2429867206261824 0.5 0.375
0.25 0.625 0.4640809264205999
0.2429867206261824 0.5 0.375
0.2379267648836656 0.625 0.5
0.2379267648836656 0.625 0.5
0.2429867206261824 0.5 0.375
0.2017630086583893 0.5 0.5
0.25 0.52363334677772 0.375
0.25 0.625 0.4640809264205999
0.2816306578378181 0.625 0.375
0.75 0.5212303021831383 0.375
0.7164739428916015 0.625 0.375
0.75 0.625 0.459947013554812
0.75 0.5212303021831383 0.375
0.75 0.625 0.459947013554812
0.7646845913803328 0.625 0.5
0.75 0.5212303021831383 0.375
0.7646845913803328 0.625 0.5
0.7565659250866769 0.5 0.375
0.7565659250866769 0.5 0.375
0.7646845913803328 0.625 0.5
0.7956142591690692 0.5 0.5
0.25 0.625 0.4640809264205999
0.2379267648836656 0.625 0.5
0.25 0.6399679354520036 0.5
0.375 0.75 0.4825213170729404
0.25 0.6399679354520036 0.5
0.367417102850448 0.75 0.5
0.375 0.7143543191777804 0.375
0.25 0.6399679354520036 0.5
0.375 0.75 0.4825213170729404
0.375 0.7143543191777804 0.375
0.25 0.625 0.4640809264205999
0.25 0.6399679354520036 0.5
0.375 0.7143543191777804 0.375
0.2816306578378181 0.625 0.375
0.25 0.625 0.4640809264205999
0.375 0.7143543191777804 0.375
0.375 0.75 0.4825213170729404
0.4790718046189877 0.75 0.375
0.625 0.7164200867459071 0.375
0.5226017400340562 0.75 0.375
0.625 0.75 0.4604012804014772
0.625 0.7164200867459071 0.375
0.625 0.75 0.4604012804014772
0.6442699838371725 0.75 0.5
[...]
CELL_DATA 248
SCALARS c float
LOOKUP_TABLE default
1002003
1002004
1003002
2003001
1003003
1003003
1003003
1003004
1003004
1003004
1003005
1004002
1004003
1004003
1004003
1004004
1004004
1004004
1004005
1005003
1005004
2001003
2001004
2002002
2002003
2002003
2002003
2002003
2002004
2002004
2002004
2002004
2002005
2003002
2003002
2003002
2003002
2003003
2003004
2003005
2003005
2003005
2003005
2003006
2004001
2004002
2004002
2004002
2004002
2004003
2004004
2004005
2004005
2004005
2004005
2004006
2005002
2005003
2005003
2005003
2005003
2005004
2005004
2005004
2005004
2005005
2006003
2006004
3001002
3001003
3001003
3001003
3001004
3001004
3001004
3001005
3002001
3002002
3002002
3002002
3002002
3002003
3002004
3002005
3002005
3002005
3002005
3002006
3003001
3003001
3003001
3003002
3003005
3003006
3003006
3003006
3004001
3004001
3004001
3004002
3004005
3004006
3004006
3004006
3005001
3005002
3005002
3005002
3005002
3005003
3005004
3005005
3005005
3005005
3005005
3005006
3006002
3006003
3006003
3006003
3006004
3006004
3006004
3006005
4001002
4001003
4001003
4001003
4001004
4001004
4001004
4001005
4002001
4002002
4002002
4002002
4002002
4002003
4002004
4002005
4002005
4002005
4002005
4002006
4003001
4003001
4003001
4003002
4003005
4003006
4003006
4003006
4004001
4004001
4004001
4004002
4004005
4004006
4004006
4004006
4005001
4005002
4005002
4005002
4005002
4005003
4005004
4005005
4005005
4005005
4005005
4005006
4006002
4006003
4006003
4006003
4006004
4006004
4006004
4006005
5001003
5001004
5002002
5002003
5002003
5002003
5002003
5002004
5002004
5002004
5002004
5002005
5003001
5003002
5003002
5003002
5003002
5003003
5003004
5003005
5003005
5003005
5003005
5003006
5004001
5004002
5004002
5004002
5004002
5004003
5004004
5004005
5004005
5004005
5004005
5004006
5005002
5005003
5005003
5005003
5005003
5005004
5005004
5005004
5005004
5005005
5006003
5006004
6002003
6002004
6003002
6003003
6003003
6003003
6003004
6003004
6003004
6003005
6004002
6004003
6004003
6004003
6004004
6004004
6004004
6004005
6005003
6005004
SCALARS l float
LOOKUP_TABLE default
0
0
0
0
0
0
0
0
0
0
0
0
0
0
0
0
0
0
0
0
0
0
0
0
0
0
0
0
0
0
0
0
0
0
0
0
0
0
0
0
0
0
0
0
0
0
0
0
0
0
0
0
0
0
0
0
0
0
0
0
0
0
0
0
0
0
0
0
0
0
0
0
0
0
0
0
0
0
0
0
0
0
0
0
0
0
0
0
0
0
0
0
0
0
0
0
0
0
0
0
0
0
0
0
0
0
0
0
0
0
0
0
0
0
0
0
0
0
0
0
0
0
0
0
0
0
0
0
0
0
0
0
0
0
0
0
0
0
0
0
0
0
0
0
0
0
0
0
0
0
0
0
0
0
0
0
0
0
0
0
0
0
0
0
0
0
0
0
0
0
0
0
0
0
0
0
0
0
0
0
0
0
0
0
0
0
0
0
0
0
0
0
0
0
0
0
0
0
0
0
0
0
0
0
0
0
0
0
0
0
0
0
0
0
0
0
0
0
0
0
0
0
0
0
0
0
0
0
0
0
0
0
0
0
0
0
0
0
0
0
0
0
0
0
0
0
0
0
SCALARS cl float
LOOKUP_TABLE default
0
0
0
0
0
0
0
0
0
0
0
0
0
0
0
0
0
0
0
0
0
0
0
0
0
0
0
0
0
0
0
0
0
0
0
0
0
0
0
0
0
0
0
0
0
0
0
0
0
0
0
0
0
0
0
0
0
0
0
0
0
0
0
0
0
0
0
0
0
0
0
0
0
0
0
0
0
0
0
0
0
0
0
0
0
0
0
0
0
0
0
0
0
0
0
0
0
0
0
0
0
0
0
0
0
0
0
0
0
0
0
0
0
0
0
0
0
0
0
0
0
0
0
0
0
0
0
0
0
0
0
0
0
0
0
0
0
0
0
0
0
0
0
0
0
0
0
0
0
0
0
0
0
0
0
0
0
0
0
0
0
0
0
0
0
0
0
0
0
0
0
0
0
0
0
0
0
0
0
0
0
0
0
0
0
0
0
0
0
0
0
0
0
0
0
0
0
0
0
0
0
0
0
0
0
0
0
0
0
0
0
0
0
0
0
0
0
0
0
0
0
0
0
0
0
0
0
0
0
0
0
0
0
0
0
0
0
0
0
0
0
0
0
0
0
0
0
0
POINT_DATA 744
VECTORS nn float
-0.04285749455032135 -0.3039993560754795 -0.6421272549232083
-0.04297137637968895 -0.3134207177744659 -0.6457709181944704
-0.07400062472285679 -0.3089752721705377 -0.648165685038988
-0.04297137637968895 -0.3134207177744659 -0.6457709181944704
-0.04285749455032135 -0.3039993560754795 -0.6421272549232083
0.01024715516646417 -0.3073623879125995 -0.6479832489929186
-0.3048281309375551 -0.05807375248146295 -0.6340507926160702
-0.3110732016674049 -0.09515072651993048 -0.642338772919253
-0.3173903996569328 -0.05834641853935254 -0.6388559538632578
-0.6466407165113919 -0.05364172980423926 -0.3164996134074184
-0.650384593716862 -0.08773175124666888 -0.311441645678401
-0.6419055139593901 -0.0530394187911254 -0.3055026342165097
-0.07400062472285676 -0.3089752721705377 -0.648165685038988
-0.3110732016674049 -0.09515072651993048 -0.642338772919253
-0.3048281309375551 -0.05807375248146295 -0.6340507926160702
-0.07400062472285676 -0.3089752721705377 -0.648165685038988
-0.3048281309375551 -0.05807375248146295 -0.6340507926160702
-0.04285749455032135 -0.3039993560754795 -0.6421272549232083
-0.04285749455032135 -0.3039993560754795 -0.6421272549232083
-0.3048281309375551 -0.05807375248146295 -0.6340507926160702
-0.0151963592933895 -0.03098059447776594 -0.5275477367862469
0.3132867450590134 -0.08092253545200917 -0.6211532494412085
0.01024715516646417 -0.3073623879125995 -0.6479832489929186
-0.04285749455032135 -0.3039993560754795 -0.6421272549232083
0.3132867450590134 -0.08092253545200917 -0.6211532494412085
-0.04285749455032135 -0.3039993560754795 -0.6421272549232083
0.3060847451613236 -0.004341868142548124 -0.6048930926806747
0.3060847451613236 -0.004341868142548124 -0.6048930926806747
-0.04285749455032135 -0.3039993560754795 -0.6421272549232083
-0.0151963592933895 -0.03098059447776594 -0.5275477367862469
0.3132867450590134 -0.08092253545200917 -0.6211532494412085
0.3060847451613236 -0.004341868142548124 -0.6048930926806747
0.324396820067761 -0.004270924234370646 -0.6107455133124742
-0.3048281309375551 -0.05807375248146295 -0.6340507926160702
-0.3173903996569328 -0.05834641853935254 -0.6388559538632579
-0.3097229784107673 0.01890255957008131 -0.6403229323481836
-0.3097229784107672 0.01890255957008129 -0.6403229323481836
-0.09006627383872681 0.3193493963449205 -0.6160292349808021
0.003427035381085906 0.3081026497981441 -0.5997882109107723
-0.3097229784107672 0.01890255957008129 -0.6403229323481836
0.003427035381085906 0.3081026497981441 -0.5997882109107723
-0.3048281309375551 -0.05807375248146295 -0.6340507926160702
-0.3048281309375551 -0.05807375248146295 -0.6340507926160702
0.003427035381085906 0.3081026497981441 -0.5997882109107723
-0.0151963592933895 -0.03098059447776594 -0.5275477367862469
0.09276085717004784 0.3157051500022494 -0.6149799095975577
0.3151583325620097 0.07671008372092072 -0.6178111407624131
0.3060847451613236 -0.004341868142548124 -0.6048930926806747
0.09276085717004784 0.3157051500022494 -0.6149799095975577
0.3060847451613236 -0.004341868142548124 -0.6048930926806747
0.003427035381085906 0.3081026497981441 -0.5997882109107723
0.003427035381085906 0.3081026497981441 -0.5997882109107723
0.3060847451613236 -0.004341868142548124 -0.6048930926806747
-0.0151963592933895 -0.03098059447776594 -0.5275477367862469
0.324396820067761 -0.004270924234370646 -0.6107455133124743
0.3060847451613236 -0.004341868142548124 -0.6048930926806747
0.3151583325620098 0.07671008372092071 -0.6178111407624131
0.003427035381085906 0.3081026497981441 -0.5997882109107723
-0.09006627383872681 0.3193493963449205 -0.6160292349808021
0.00290151833861461 0.3289530871860537 -0.606886729192703
0.09276085717004784 0.3157051500022494 -0.6149799095975577
0.003427035381085906 0.3081026497981441 -0.5997882109107723
0.00290151833861461 0.3289530871860537 -0.606886729192703
-0.04895550404944432 -0.643302173651794 -0.3125472870270536
-0.04923813838050884 -0.6397008732105185 -0.3025068623676705
-0.08012813864313323 -0.646467728058572 -0.3076009356318393
-0.04923813838050884 -0.6397008732105185 -0.3025068623676705
-0.04895550404944432 -0.643302173651794 -0.3125472870270536
0.008399593422221602 -0.6443571127206116 -0.3068666482288282
-0.2968428747102905 -0.2972712001428753 -0.4450786104755564
-0.2944446390120435 -0.4459857299938786 -0.2965582538380007
-0.4481651678276866 -0.2988015239540505 -0.3008182557126384
-0.08012813864313323 -0.646467728058572 -0.3076009356318393
-0.2944446390120435 -0.4459857299938785 -0.2965582538380007
-0.2968428747102905 -0.2972712001428753 -0.4450786104755564
-0.04895550404944432 -0.643302173651794 -0.3125472870270536
-0.08012813864313323 -0.646467728058572 -0.3076009356318393
-0.2968428747102905 -0.2972712001428753 -0.4450786104755564
-0.04895550404944432 -0.643302173651794 -0.3125472870270536
-0.2968428747102905 -0.2972712001428753 -0.4450786104755564
-0.07400062472285679 -0.3089752721705377 -0.648165685038988
-0.04895550404944432 -0.643302173651794 -0.3125472870270536
-0.07400062472285679 -0.3089752721705377 -0.648165685038988
-0.04297137637968895 -0.3134207177744659 -0.6457709181944704
0.01024715516646417 -0.3073623879125995 -0.6479832489929186
0.2927336366884066 -0.2801714162288768 -0.4799127380724941
0.2941358839160608 -0.4764853560913206 -0.2833338066232149
-0.04297137637968895 -0.3134207177744659 -0.6457709181944704
0.01024715516646417 -0.3073623879125995 -0.6479832489929186
0.2941358839160608 -0.4764853560913206 -0.2833338066232149
-0.04297137637968895 -0.3134207177744659 -0.6457709181944704
0.2941358839160608 -0.4764853560913206 -0.2833338066232149
0.008399593422221602 -0.6443571127206116 -0.3068666482288282
-0.04297137637968895 -0.3134207177744659 -0.6457709181944704
0.008399593422221602 -0.6443571127206116 -0.3068666482288282
-0.04895550404944432 -0.643302173651794 -0.3125472870270536
0.2941358839160608 -0.4764853560913206 -0.283333806623215
0.2927336366884066 -0.2801714162288768 -0.4799127380724941
0.4863823566726682 -0.2717022960913003 -0.2701470424779321
-0.4481651678276866 -0.2988015239540505 -0.3008182557126383
-0.650384593716862 -0.08773175124666888 -0.311441645678401
-0.6466407165113919 -0.05364172980423926 -0.3164996134074184
-0.2968428747102905 -0.2972712001428753 -0.4450786104755564
-0.4481651678276866 -0.2988015239540505 -0.3008182557126383
-0.6466407165113919 -0.05364172980423926 -0.3164996134074184
-0.2968428747102905 -0.2972712001428753 -0.4450786104755564
-0.6466407165113919 -0.05364172980423926 -0.3164996134074184
-0.3173903996569328 -0.05834641853935254 -0.6388559538632578
-0.2968428747102905 -0.2972712001428753 -0.4450786104755564
-0.3173903996569328 -0.05834641853935254 -0.6388559538632578
-0.3110732016674049 -0.09515072651993048 -0.642338772919253
-0.07400062472285676 -0.3089752721705377 -0.648165685038988
-0.2968428747102905 -0.2972712001428753 -0.4450786104755564
-0.3110732016674049 -0.09515072651993048 -0.642338772919253
0.01024715516646417 -0.3073623879125995 -0.6479832489929186
0.3132867450590134 -0.08092253545200917 -0.6211532494412085
0.2927336366884066 -0.2801714162288768 -0.4799127380724941
0.324396820067761 -0.004270924234370646 -0.6107455133124742
0.656042906634472 -0.01430641222639004 -0.3019176006856154
0.6612913379810487 -0.05575090665427011 -0.2945378467770735
0.3132867450590134 -0.08092253545200917 -0.6211532494412085
0.324396820067761 -0.004270924234370646 -0.6107455133124742
0.6612913379810487 -0.05575090665427011 -0.2945378467770735
0.3132867450590134 -0.08092253545200917 -0.6211532494412085
0.6612913379810487 -0.05575090665427011 -0.2945378467770735
0.4863823566726682 -0.2717022960913003 -0.2701470424779321
0.3132867450590134 -0.08092253545200917 -0.6211532494412085
0.4863823566726682 -0.2717022960913003 -0.2701470424779321
0.2927336366884066 -0.2801714162288768 -0.4799127380724941
0.6612913379810487 -0.05575090665427012 -0.2945378467770736
0.656042906634472 -0.01430641222639004 -0.3019176006856154
0.6515766916450819 -0.01509430791548409 -0.2906849032527486
-0.6466407165113919 -0.05364172980423926 -0.3164996134074184
-0.6419055139593901 -0.0530394187911254 -0.3055026342165097
-0.6479102849565485 0.01425644580505619 -0.3088603339969054
-0.2859173836418928 0.3040063254973329 -0.4806578416146665
-0.6479102849565485 0.01425644580505619 -0.3088603339969054
-0.4823753448498823 0.3006568019178953 -0.2806746058421575
-0.3097229784107673 0.01890255957008131 -0.6403229323481836
-0.6479102849565485 0.01425644580505619 -0.3088603339969054
-0.2859173836418928 0.3040063254973329 -0.4806578416146665
-0.3097229784107673 0.01890255957008131 -0.6403229323481836
-0.6466407165113919 -0.05364172980423926 -0.3164996134074184
-0.6479102849565485 0.01425644580505619 -0.3088603339969054
-0.3097229784107673 0.01890255957008131 -0.6403229323481836
-0.3173903996569328 -0.05834641853935254 -0.6388559538632579
-0.6466407165113919 -0.05364172980423926 -0.3164996134074184
-0.3097229784107672 0.01890255957008129 -0.6403229323481836
-0.2859173836418928 0.3040063254973329 -0.4806578416146665
-0.09006627383872681 0.3193493963449205 -0.6160292349808021
0.3151583325620097 0.07671008372092072 -0.6178111407624131
0.09276085717004784 0.3157051500022494 -0.6149799095975577
0.2943173699953575 0.2899113424669078 -0.474091429770472
0.3151583325620098 0.07671008372092071 -0.6178111407624131
0.2943173699953575 0.2899113424669078 -0.474091429770472
0.4809723035661141 0.2758280355607933 -0.2956059347541365
0.324396820067761 -0.004270924234370646 -0.6107455133124743
0.3151583325620098 0.07671008372092071 -0.6178111407624131
0.4809723035661141 0.2758280355607933 -0.2956059347541365
0.324396820067761 -0.004270924234370646 -0.6107455133124743
0.4809723035661141 0.2758280355607933 -0.2956059347541365
0.6576265128170483 0.0352060775774085 -0.2988569519802137
0.324396820067761 -0.004270924234370646 -0.6107455133124743
0.6576265128170483 0.0352060775774085 -0.2988569519802137
0.656042906634472 -0.01430641222639004 -0.3019176006856154
0.6515766916450819 -0.01509430791548409 -0.2906849032527486
0.656042906634472 -0.01430641222639004 -0.3019176006856154
0.6576265128170484 0.03520607757740848 -0.2988569519802137
-0.2859173836418928 0.3040063254973329 -0.4806578416146665
-0.4823753448498823 0.3006568019178953 -0.2806746058421575
-0.2748939848927955 0.4915842369312376 -0.2719206352319361
-0.009841901431521336 0.6631534411591491 -0.2988448164246391
-0.2748939848927955 0.4915842369312376 -0.2719206352319361
-0.05595752842629351 0.6682758075658554 -0.291282231186519
0.00290151833861461 0.3289530871860537 -0.606886729192703
-0.2748939848927955 0.4915842369312376 -0.2719206352319361
-0.009841901431521336 0.6631534411591491 -0.2988448164246391
0.00290151833861461 0.3289530871860537 -0.606886729192703
-0.2859173836418928 0.3040063254973329 -0.4806578416146665
-0.2748939848927955 0.4915842369312376 -0.2719206352319361
0.00290151833861461 0.3289530871860537 -0.606886729192703
-0.09006627383872681 0.3193493963449205 -0.6160292349808021
-0.2859173836418928 0.3040063254973329 -0.4806578416146665
0.00290151833861461 0.3289530871860537 -0.606886729192703
-0.009841901431521336 0.6631534411591491 -0.2988448164246391
0.04216771192727328 0.6644834790852825 -0.2954315853181638
0.09276085717004784 0.3157051500022494 -0.6149799095975577
0.00290151833861461 0.3289530871860537 -0.606886729192703
0.04216771192727328 0.6644834790852825 -0.2954315853181638
0.09276085717004784 0.3157051500022494 -0.6149799095975577
0.04216771192727328 0.6644834790852825 -0.2954315853181638
0.2765609424258164 0.4830636743185663 -0.2951202664176215
0.09276085717004784 0.3157051500022494 -0.6149799095975577
0.2765609424258164 0.4830636743185663 -0.2951202664176215
0.2943173699953575 0.2899113424669078 -0.474091429770472
0.4809723035661141 0.2758280355607933 -0.2956059347541364
0.2943173699953575 0.2899113424669078 -0.474091429770472
0.2765609424258164 0.4830636743185663 -0.2951202664176215
-0.009841901431521336 0.6631534411591491 -0.2988448164246391
-0.05595752842629352 0.6682758075658554 -0.291282231186519
-0.01058920064013048 0.6579635826450937 -0.2863995115966189
0.04216771192727328 0.6644834790852825 -0.2954315853181638
-0.009841901431521336 0.6631534411591491 -0.2988448164246391
-0.01058920064013048 0.6579635826450937 -0.2863995115966189
-0.3072289301853571 -0.6542615247083751 -0.07545159449866538
-0.3025188990592557 -0.6485189344422492 -0.04683486637608192
-0.3117762107284912 -0.6520710378342021 -0.04695634793185133
-0.3072289301853571 -0.6542615247083751 -0.07545159449866538
-0.08012813864313323 -0.646467728058572 -0.3076009356318393
-0.04923813838050884 -0.6397008732105185 -0.3025068623676705
-0.3072289301853571 -0.6542615247083751 -0.07545159449866538
-0.04923813838050884 -0.6397008732105185 -0.3025068623676705
-0.3025188990592557 -0.6485189344422492 -0.04683486637608192
-0.3025188990592557 -0.6485189344422492 -0.04683486637608192
-0.04923813838050884 -0.6397008732105185 -0.3025068623676705
-0.03194080315659999 -0.5288330940812191 -0.02778121159229682
0.008399593422221602 -0.6443571127206116 -0.3068666482288282
0.3168628650787021 -0.6061277180832969 -0.08871783762778832
0.3094596440921591 -0.588144214464195 -0.002673529506071715
0.008399593422221602 -0.6443571127206116 -0.3068666482288282
0.3094596440921591 -0.588144214464195 -0.002673529506071715
-0.04923813838050884 -0.6397008732105185 -0.3025068623676705
-0.04923813838050884 -0.6397008732105185 -0.3025068623676705
0.3094596440921591 -0.588144214464195 -0.002673529506071715
-0.03194080315659999 -0.5288330940812191 -0.02778121159229682
0.3094596440921591 -0.588144214464195 -0.002673529506071715
0.3168628650787021 -0.6061277180832969 -0.08871783762778832
0.3297994250766179 -0.5932515365526636 -0.002268388473794738
-0.6475650429387056 -0.3156037736549265 -0.08129022738623801
-0.6436896723216503 -0.3207605995880087 -0.04794793235289022
-0.6393875461385389 -0.3107876549576931 -0.04788744430105838
-0.3117762107284912 -0.6520710378342021 -0.04695634793185133
-0.6436896723216503 -0.3207605995880087 -0.04794793235289022
-0.6475650429387056 -0.3156037736549265 -0.08129022738623801
-0.3072289301853571 -0.6542615247083751 -0.07545159449866538
-0.3117762107284912 -0.6520710378342021 -0.04695634793185133
-0.6475650429387056 -0.3156037736549265 -0.08129022738623801
-0.3072289301853571 -0.6542615247083751 -0.07545159449866538
-0.6475650429387056 -0.3156037736549265 -0.08129022738623801
-0.4481651678276866 -0.2988015239540505 -0.3008182557126384
-0.3072289301853571 -0.6542615247083751 -0.07545159449866538
-0.4481651678276866 -0.2988015239540505 -0.3008182557126384
-0.2944446390120435 -0.4459857299938786 -0.2965582538380007
-0.08012813864313323 -0.646467728058572 -0.3076009356318393
-0.3072289301853571 -0.6542615247083751 -0.07545159449866538
-0.2944446390120435 -0.4459857299938785 -0.2965582538380007
0.008399593422221602 -0.6443571127206116 -0.3068666482288282
0.2941358839160608 -0.4764853560913206 -0.2833338066232149
0.3168628650787021 -0.6061277180832969 -0.08871783762778832
0.4863823566726682 -0.2717022960913003 -0.2701470424779321
0.6597755229418387 -0.2989884912684537 -0.0517664841397204
0.6548805561098718 -0.3054395274842115 -0.01282818600593748
0.2941358839160608 -0.4764853560913206 -0.283333806623215
0.4863823566726682 -0.2717022960913003 -0.2701470424779321
0.6548805561098718 -0.3054395274842115 -0.01282818600593748
0.2941358839160608 -0.4764853560913206 -0.283333806623215
0.6548805561098718 -0.3054395274842115 -0.01282818600593748
0.3297994250766179 -0.5932515365526636 -0.002268388473794738
0.2941358839160608 -0.4764853560913206 -0.283333806623215
0.3297994250766179 -0.5932515365526636 -0.002268388473794738
0.3168628650787021 -0.6061277180832969 -0.08871783762778832
0.6548805561098718 -0.3054395274842115 -0.01282818600593748
0.6597755229418387 -0.2989884912684537 -0.0517664841397204
0.6505492316682139 -0.2956875524499907 -0.01375341068549207
-0.650384593716862 -0.08773175124666888 -0.311441645678401
-0.6475650429387056 -0.3156037736549265 -0.08129022738623801
-0.6393875461385389 -0.3107876549576931 -0.04788744430105838
-0.650384593716862 -0.08773175124666888 -0.311441645678401
-0.6393875461385389 -0.3107876549576931 -0.04788744430105838
-0.6419055139593901 -0.0530394187911254 -0.3055026342165097
-0.6419055139593901 -0.0530394187911254 -0.3055026342165097
-0.6393875461385389 -0.3107876549576931 -0.04788744430105838
-0.5260370345410972 -0.02250250386738376 -0.02428492541271492
-0.4481651678276866 -0.2988015239540505 -0.3008182557126383
-0.6475650429387056 -0.3156037736549265 -0.08129022738623801
-0.650384593716862 -0.08773175124666888 -0.311441645678401
0.4863823566726682 -0.2717022960913003 -0.2701470424779321
0.6612913379810487 -0.05575090665427011 -0.2945378467770735
0.6597755229418387 -0.2989884912684537 -0.0517664841397204
0.6597755229418387 -0.2989884912684537 -0.0517664841397204
0.6612913379810487 -0.05575090665427012 -0.2945378467770736