LAMMPS data file

120 atoms
100 bonds
1 atom types
1 bond types

0 1 xlo xhi
0 1 ylo yhi
0 1 zlo zhi

Atoms # bond

1 0 1 0.474827 0.547528 0.334638 0 0 0
2 0 1 0.514212 0.583621 0.371973 0 0 0
3 0 1 0.529709 0.593655 0.447671 0 0 0
4 0 1 0.533703 0.66909 0.506833 0 0 0
5 0 1 0.551248 0.671327 0.53886 0 0 0
6 0 1 0.610743 0.747752 0.583487 0 0 0
7 0 1 0.49777 0.543609 0.658322 0 0 0
8 0 1 0.52529 0.556464 0.682172 0 0 0
9 0 1 0.570386 0.577337 0.732124 0 0 0
10 0 1 0.596888 0.590694 0.74237 0 0 0
11 0 1 0.627743 0.616998 0.818328 0 0 0
12 0 1 0.701354 0.653282 0.837151 0 0 0
13 0 1 0.740754 0.636208 0.651489 0 0 0
14 0 1 0.811797 0.71115 0.716259 0 0 0
15 0 1 0.824842 0.756228 0.729311 0 0 0
16 0 1 0.861991 0.801384 0.775223 0 0 0
17 0 1 0.904545 0.849605 0.820888 0 0 0
18 0 1 0.921469 0.886855 0.853552 0 0 0
19 0 1 0.564503 0.492204 0.205538 0 0 0
20 0 1 0.577855 0.519764 0.209701 0 0 0
21 0 1 0.606845 0.562961 0.231177 0 0 0
22 0 1 0.624282 0.602052 0.298102 0 0 0
23 0 1 0.690863 0.677666 0.312859 0 0 0
24 0 1 0.693631 0.740806 0.391559 0 0 0
25 0 1 0.754286 0.0765324 0.707942 0 0 0
26 0 1 0.769442 0.090296 0.784212 0 0 0
27 0 1 0.797671 0.118898 0.840684 0 0 0
28 0 1 0.850894 0.125318 0.886422 0 0 0
29 0 1 0.862029 0.201245 0.940228 0 0 0
30 0 1 0.940362 0.203483 0.98683 0 0 0
31 0 1 0.863601 0.0167801 0.225589 0 0 0
32 0 1 0.87527 0.0598115 0.236038 0 0 0
33 0 1 0.919875 0.0952414 0.25611 0 0 0
34 0 1 0.967126 0.131653 0.313713 0 0 0
35 0 1 0.990908 0.144372 0.354368 0 0 0
36 0 1 0.999152 0.173083 0.379851 0 0 0
37 0 1 0.38648 0.636209 0.398418 0 0 0
38 0 1 0.408667 0.660384 0.424149 0 0 0
39 0 1 0.454083 0.738221 0.450627 0 0 0
40 0 1 0.488646 0.75961 0.495069 0 0 0
41 0 1 0.520583 0.83763 0.519852 0 0 0
42 0 1 0.543887 0.864491 0.522542 0 0 0
43 0 1 0.648471 0.691524 0.236474 0 0 0
44 0 1 0.728449 0.755776 0.240662 0 0 0
45 0 1 0.784743 0.830306 0.297117 0 0 0
46 0 1 0.861859 0.833206 0.322525 0 0 0
47 0 1 0.889416 0.892768 0.34777 0 0 0
48 0 1 0.919529 0.943733 0.374104 0 0 0
49 0 1 0.754099 0.286927 0.280821 0 0 0
50 0 1 0.757742 0.355322 0.343747 0 0 0
51 0 1 0.813448 0.400265 0.380111 0 0 0
52 0 1 0.844995 0.42076 0.381032 0 0 0
53 0 1 0.84913 0.478781 0.396228 0 0 0
54 0 1 0.887151 0.554987 0.456296 0 0 0
55 0 1 0.0689746 0.14451 0.52564 0 0 0
56 0 1 0.146368 0.173112 0.587626 0 0 0
57 0 1 0.212327 0.224405 0.624642 0 0 0
58 0 1 0.238497 0.249521 0.664971 0 0 0
59 0 1 0.294207 0.256609 0.737597 0 0 0
60 0 1 0.357529 0.272418 0.806458 0 0 0
61 0 1 0.0425559 0.758139 0.291594 0 0 0
62 0 1 0.0450862 0.827719 0.299588 0 0 0
63 0 1 0.0855436 0.868725 0.317893 0 0 0
64 0 1 0.153068 0.914739 0.364372 0 0 0
65 0 1 0.224421 0.915544 0.431083 0 0 0
66 0 1 0.298545 0.981297 0.511055 0 0 0
67 0 1 0.3174 0.253854 0.576944 0 0 0
68 0 1 0.392351 0.329118 0.632371 0 0 0
69 0 1 0.434823 0.342577 0.648456 0 0 0
70 0 1 0.445423 0.422008 0.674292 0 0 0
71 0 1 0.458657 0.441015 0.685876 0 0 0
72 0 1 0.477812 0.481129 0.740674 0 0 0
73 0 1 0.274705 0.149132 0.721623 0 0 0
74 0 1 0.280436 0.175842 0.729508 0 0 0
75 0 1 0.303992 0.230485 0.753001 0 0 0
76 0 1 0.30657 0.248886 0.80652 0 0 0
77 0 1 0.371277 0.291195 0.88331 0 0 0
78 0 1 0.42563 0.343191 0.905445 0 0 0
79 0 1 0.0369879 0.245992 0.289806 0 0 0
80 0 1 0.108531 0.31507 0.357613 0 0 0
81 0 1 0.110202 0.333952 0.384162 0 0 0
82 0 1 0.166065 0.404227 0.413085 0 0 0
83 0 1 0.186323 0.428792 0.427512 0 0 0
84 0 1 0.218178 0.4616 0.494556 0 0 0
85 0 1 0.319245 0.253109 0.00198498 0 0 0
86 0 1 0.33114 0.318819 0.0397918 0 0 0
87 0 1 0.373271 0.344077 0.0985652 0 0 0
88 0 1 0.444197 0.387651 0.145885 0 0 0
89 0 1 0.512586 0.41695 0.197974 0 0 0
90 0 1 0.552606 0.491208 0.223551 0 0 0
91 0 1 0.251956 0.618505 0.615681 0 0 0
92 0 1 0.271596 0.643134 0.677486 0 0 0
93 0 1 0.33838 0.708385 0.752517 0 0 0
94 0 1 0.36887 0.749253 0.778809 0 0 0
95 0 1 0.39603 0.823395 0.822841 0 0 0
96 0 1 0.451069 0.830122 0.843277 0 0 0
97 0 1 0.207336 0.238598 0.657394 0 0 0
98 0 1 0.231722 0.251202 0.702057 0 0 0
99 0 1 0.250984 0.278375 0.764579 0 0 0
100 0 1 0.270607 0.314677 0.783765 0 0 0
101 0 1 0.271751 0.361933 0.80518 0 0 0
102 0 1 0.346177 0.414691 0.810672 0 0 0
103 0 1 0.086761 0.238839 0.279737 0 0 0
104 0 1 0.135448 0.287519 0.336416 0 0 0
105 0 1 0.164141 0.308315 0.413272 0 0 0
106 0 1 0.227558 0.359871 0.438357 0 0 0
107 0 1 0.285582 0.407467 0.490831 0 0 0
108 0 1 0.31804 0.426046 0.495279 0 0 0
109 0 1 0.18268 0.220374 0.520582 0 0 0
110 0 1 0.189418 0.252943 0.562299 0 0 0
111 0 1 0.261529 0.278078 0.597824 0 0 0
112 0 1 0.272179 0.297948 0.652883 0 0 0
113 0 1 0.312871 0.354515 0.68945 0 0 0
114 0 1 0.392573 0.358838 0.724817 0 0 0
115 0 1 0.695886 0.00833047 0.417399 0 0 0
116 0 1 0.702258 0.0139799 0.494558 0 0 0
117 0 1 0.762764 0.0615321 0.56013 0 0 0
118 0 1 0.835789 0.0915512 0.638368 0 0 0
119 0 1 0.866563 0.0917666 0.680508 0 0 0
120 0 1 0.889071 0.123805 0.707861 0 0 0

Bonds

1 1 1 2
2 1 2 3
3 1 3 4
4 1 4 5
5 1 5 6
6 1 1 2
7 1 2 3
8 1 3 4
9 1 4 5
10 1 5 6
11 1 1 2
12 1 2 3
13 1 3 4
14 1 4 5
15 1 5 6
16 1 1 2
17 1 2 3
18 1 3 4
19 1 4 5
20 1 5 6
21 1 1 2
22 1 2 3
23 1 3 4
24 1 4 5
25 1 5 6
26 1 1 2
27 1 2 3
28 1 3 4
29 1 4 5
30 1 5 6
31 1 1 2
32 1 2 3
33 1 3 4
34 1 4 5
35 1 5 6
36 1 1 2
37 1 2 3
38 1 3 4
39 1 4 5
40 1 5 6
41 1 1 2
42 1 2 3
43 1 3 4
44 1 4 5
45 1 5 6
46 1 1 2
47 1 2 3
48 1 3 4
49 1 4 5
50 1 5 6
51 1 1 2
52 1 2 3
53 1 3 4
54 1 4 5
55 1 5 6
56 1 1 2
57 1 2 3
58 1 3 4
59 1 4 5
60 1 5 6
61 1 1 2
62 1 2 3
63 1 3 4
64 1 4 5
65 1 5 6
66 1 1 2
67 1 2 3
68 1 3 4
69 1 4 5
70 1 5 6
71 1 1 2
72 1 2 3
73 1 3 4
74 1 4 5
75 1 5 6
76 1 1 2
77 1 2 3
78 1 3 4
79 1 4 5
80 1 5 6
81 1 1 2
82 1 2 3
83 1 3 4
84 1 4 5
85 1 5 6
86 1 1 2
87 1 2 3
88 1 3 4
89 1 4 5
90 1 5 6
91 1 1 2
92 1 2 3
93 1 3 4
94 1 4 5
95 1 5 6
96 1 1 2
97 1 2 3
98 1 3 4
99 1 4 5
100 1 5 6
