LAMMPS data file

2000 atoms
1500 bonds
1 atom types
1 bond types

0 1 xlo xhi
0 1 ylo yhi
0 1 zlo zhi

Atoms # bond

1 0 1 0.714178 0.307282 0.034919 0 0 0
2 0 1 0.779029 0.307441 0.0527477 0 0 0
3 0 1 0.81203 0.378731 0.0979037 0 0 0
4 0 1 0.869033 0.420272 0.134445 0 0 0
5 0 1 0.743689 0.652835 0.254334 0 0 0
6 0 1 0.752909 0.699241 0.301363 0 0 0
7 0 1 0.811698 0.758527 0.328328 0 0 0
8 0 1 0.864768 0.826098 0.396437 0 0 0
9 0 1 0.474827 0.802277 0.91451 0 0 0
10 0 1 0.521895 0.828317 0.937939 0 0 0
11 0 1 0.588813 0.843083 0.946964 0 0 0
12 0 1 0.614281 0.903449 0.964036 0 0 0
13 0 1 0.134114 0.177267 0.241466 0 0 0
14 0 1 0.148843 0.230432 0.301027 0 0 0
15 0 1 0.224227 0.261035 0.359791 0 0 0
16 0 1 0.249633 0.321497 0.435009 0 0 0
17 0 1 0.0825708 0.0845558 0.307415 0 0 0
18 0 1 0.140165 0.133439 0.321454 0 0 0
19 0 1 0.211208 0.166024 0.390579 0 0 0
20 0 1 0.259828 0.186871 0.431773 0 0 0
21 0 1 0.63018 0.210257 0.798125 0 0 0
22 0 1 0.672819 0.232181 0.847014 0 0 0
23 0 1 0.694778 0.241711 0.924652 0 0 0
24 0 1 0.768697 0.261492 0.955507 0 0 0
25 0 1 0.79677 0.551344 0.764745 0 0 0
26 0 1 0.868678 0.557434 0.790152 0 0 0
27 0 1 0.908814 0.570735 0.863015 0 0 0
28 0 1 0.977061 0.589585 0.940629 0 0 0
29 0 1 0.553396 0.763653 0.561778 0 0 0
30 0 1 0.560976 0.793158 0.640171 0 0 0
31 0 1 0.581329 0.82304 0.667692 0 0 0
32 0 1 0.602769 0.86426 0.739767 0 0 0
33 0 1 0.753615 0.805302 0.149854 0 0 0
34 0 1 0.780085 0.861021 0.163846 0 0 0
35 0 1 0.857819 0.902862 0.186868 0 0 0
36 0 1 0.872749 0.923882 0.233295 0 0 0
37 0 1 0.0820408 0.248307 0.159089 0 0 0
38 0 1 0.0830143 0.26813 0.176527 0 0 0
39 0 1 0.123472 0.312069 0.219165 0 0 0
40 0 1 0.15784 0.33866 0.282791 0 0 0
41 0 1 0.744961 0.328806 0.352866 0 0 0
42 0 1 0.800877 0.364345 0.385273 0 0 0
43 0 1 0.824531 0.398207 0.451098 0 0 0
44 0 1 0.848924 0.467934 0.510751 0 0 0
45 0 1 0.442309 0.205962 0.76774 0 0 0
46 0 1 0.511309 0.224466 0.784637 0 0 0
47 0 1 0.548559 0.291599 0.799291 0 0 0
48 0 1 0.584652 0.368912 0.86868 0 0 0
49 0 1 0.818191 0.117171 0.362374 0 0 0
50 0 1 0.820481 0.190627 0.438025 0 0 0
51 0 1 0.876421 0.230991 0.490377 0 0 0
52 0 1 0.955243 0.285533 0.558911 0 0 0
53 0 1 0.828349 0.351369 0.639133 0 0 0
54 0 1 0.89441 0.358449 0.69264 0 0 0
55 0 1 0.954481 0.438384 0.705303 0 0 0
56 0 1 0.968117 0.471844 0.7562 0 0 0
57 0 1 0.141925 0.69116 0.224139 0 0 0
58 0 1 0.194225 0.770051 0.286656 0 0 0
59 0 1 0.236338 0.838469 0.303302 0 0 0
60 0 1 0.308901 0.866571 0.363812 0 0 0
61 0 1 0.0520397 0.475313 0.298124 0 0 0
62 0 1 0.100283 0.513283 0.315746 0 0 0
63 0 1 0.145079 0.521656 0.31814 0 0 0
64 0 1 0.16298 0.529136 0.358396 0 0 0
65 0 1 0.575366 0.541788 0.40915 0 0 0
66 0 1 0.593553 0.569349 0.465701 0 0 0
67 0 1 0.652394 0.621647 0.51365 0 0 0
68 0 1 0.676283 0.685899 0.550254 0 0 0
69 0 1 0.625882 0.714387 0.383232 0 0 0
70 0 1 0.636612 0.725052 0.40656 0 0 0
71 0 1 0.673575 0.795475 0.44788 0 0 0
72 0 1 0.726249 0.823442 0.493778 0 0 0
73 0 1 0.491805 0.843082 0.599449 0 0 0
74 0 1 0.543924 0.853226 0.633443 0 0 0
75 0 1 0.546161 0.893434 0.691273 0 0 0
76 0 1 0.568787 0.924432 0.724665 0 0 0
77 0 1 0.641164 0.734668 0.237867 0 0 0
78 0 1 0.665041 0.760649 0.257065 0 0 0
79 0 1 0.712841 0.773528 0.296442 0 0 0
80 0 1 0.767715 0.782404 0.356217 0 0 0
81 0 1 0.45486 0.108585 0.707942 0 0 0
82 0 1 0.455383 0.173361 0.729321 0 0 0
83 0 1 0.512189 0.240135 0.794598 0 0 0
84 0 1 0.562236 0.303061 0.841534 0 0 0
85 0 1 0.537251 0.750847 0.745897 0 0 0
86 0 1 0.55864 0.802371 0.764202 0 0 0
87 0 1 0.616289 0.847467 0.777254 0 0 0
88 0 1 0.68146 0.922782 0.806563 0 0 0
89 0 1 0.0222997 0.0537563 0.494363 0 0 0
90 0 1 0.0352845 0.0677379 0.565892 0 0 0
91 0 1 0.0632025 0.104343 0.579132 0 0 0
92 0 1 0.0769661 0.182882 0.599051 0 0 0
93 0 1 0.189951 0.940799 0.686696 0 0 0
94 0 1 0.266276 0.988647 0.752848 0 0 0
95 0 1 0.310078 0.997545 0.774798 0 0 0
96 0 1 0.317199 0.999981 0.806544 0 0 0
97 0 1 0.791148 0.688071 0.30787 0 0 0
98 0 1 0.807987 0.728119 0.324518 0 0 0
99 0 1 0.852529 0.779327 0.401423 0 0 0
100 0 1 0.899007 0.821361 0.45821 0 0 0
101 0 1 0.491759 0.434658 0.869762 0 0 0
102 0 1 0.571022 0.452479 0.885915 0 0 0
103 0 1 0.573433 0.504357 0.900403 0 0 0
104 0 1 0.589705 0.524929 0.960525 0 0 0
105 0 1 0.126797 0.108537 0.357522 0 0 0
106 0 1 0.152124 0.117363 0.415124 0 0 0
107 0 1 0.228549 0.195536 0.461982 0 0 0
108 0 1 0.261097 0.207933 0.479043 0 0 0
109 0 1 0.715887 0.796143 0.745626 0 0 0
110 0 1 0.717997 0.837639 0.804751 0 0 0
111 0 1 0.745671 0.892746 0.832074 0 0 0
112 0 1 0.78819 0.930529 0.844793 0 0 0
113 0 1 0.113041 0.71114 0.538051 0 0 0
114 0 1 0.119887 0.726885 0.575746 0 0 0
115 0 1 0.164703 0.774136 0.654743 0 0 0
116 0 1 0.226992 0.811471 0.716707 0 0 0
117 0 1 0.707572 0.684738 0.270457 0 0 0
118 0 1 0.761757 0.75132 0.2741 0 0 0
119 0 1 0.822671 0.795924 0.298355 0 0 0
120 0 1 0.849036 0.863786 0.345341 0 0 0
121 0 1 0.574214 0.77102 0.242202 0 0 0
122 0 1 0.638405 0.802463 0.272642 0 0 0
123 0 1 0.651134 0.852527 0.30467 0 0 0
124 0 1 0.681965 0.922209 0.349851 0 0 0
125 0 1 0.815281 0.705902 0.557833 0 0 0
126 0 1 0.894541 0.781828 0.607215 0 0 0
127 0 1 0.956717 0.811572 0.674107 0 0 0
128 0 1 0.980021 0.889108 0.742028 0 0 0
129 0 1 0.758972 0.3174 0.0569307 0 0 0
130 0 1 0.838961 0.333396 0.0690559 0 0 0
131 0 1 0.840322 0.411081 0.141682 0 0 0
132 0 1 0.854424 0.429799 0.161396 0 0 0
133 0 1 0.38569 0.633481 0.238793 0 0 0
134 0 1 0.398546 0.648914 0.314407 0 0 0
135 0 1 0.450766 0.675914 0.363043 0 0 0
136 0 1 0.473587 0.685316 0.376088 0 0 0
137 0 1 0.659473 0.285267 0.68561 0 0 0
138 0 1 0.665153 0.360628 0.726153 0 0 0
139 0 1 0.690918 0.362866 0.773017 0 0 0
140 0 1 0.737043 0.404917 0.78445 0 0 0
141 0 1 0.370746 0.5707 0.722266 0 0 0
142 0 1 0.429889 0.627527 0.771719 0 0 0
143 0 1 0.493443 0.6298 0.793706 0 0 0
144 0 1 0.546286 0.653321 0.836331 0 0 0
145 0 1 0.920128 0.402167 0.187392 0 0 0
146 0 1 0.944302 0.423386 0.252642 0 0 0
147 0 1 0.968244 0.455787 0.290594 0 0 0
148 0 1 0.971356 0.501452 0.308925 0 0 0
149 0 1 0.556874 0.67673 0.17709 0 0 0
150 0 1 0.623799 0.686476 0.241685 0 0 0
151 0 1 0.694074 0.752113 0.267865 0 0 0
152 0 1 0.746019 0.806296 0.288912 0 0 0
153 0 1 0.839646 0.365286 0.508191 0 0 0
154 0 1 0.87391 0.422902 0.576053 0 0 0
155 0 1 0.895321 0.475399 0.647556 0 0 0
156 0 1 0.966548 0.491742 0.69357 0 0 0
157 0 1 0.10108 0.129489 0.404334 0 0 0
158 0 1 0.10627 0.1582 0.47567 0 0 0
159 0 1 0.153085 0.195929 0.499927 0 0 0
160 0 1 0.216091 0.244683 0.503065 0 0 0
161 0 1 0.754286 0.586875 0.582525 0 0 0
162 0 1 0.794498 0.659261 0.589902 0 0 0
163 0 1 0.82605 0.712032 0.627923 0 0 0
164 0 1 0.888013 0.726396 0.680239 0 0 0
165 0 1 0.692845 0.26366 0.492798 0 0 0
166 0 1 0.74242 0.311256 0.565372 0 0 0
167 0 1 0.752869 0.314156 0.634677 0 0 0
168 0 1 0.786724 0.32215 0.656837 0 0 0
169 0 1 0.113568 0.235398 0.0428375 0 0 0
170 0 1 0.18727 0.294736 0.0483554 0 0 0
171 0 1 0.244733 0.326382 0.101049 0 0 0
172 0 1 0.284598 0.39547 0.130792 0 0 0
173 0 1 0.800092 0.520299 0.368572 0 0 0
174 0 1 0.850988 0.543692 0.383467 0 0 0
175 0 1 0.857111 0.566158 0.451947 0 0 0
176 0 1 0.921264 0.591641 0.49654 0 0 0
177 0 1 0.53558 0.224076 0.530727 0 0 0
178 0 1 0.586124 0.28498 0.543977 0 0 0
179 0 1 0.604564 0.332131 0.582464 0 0 0
180 0 1 0.609866 0.375162 0.649753 0 0 0
181 0 1 0.62869 0.238117 0.277344 0 0 0
182 0 1 0.63122 0.287598 0.293426 0 0 0
183 0 1 0.687515 0.336278 0.349483 0 0 0
184 0 1 0.695123 0.396657 0.367884 0 0 0
185 0 1 0.00454754 0.184103 0.838052 0 0 0
186 0 1 0.0470193 0.247668 0.86104 0 0 0
187 0 1 0.119584 0.287828 0.893775 0 0 0
188 0 1 0.162767 0.333912 0.929163 0 0 0
189 0 1 0.555536 0.297265 0.36624 0 0 0
190 0 1 0.562299 0.335674 0.377342 0 0 0
191 0 1 0.613266 0.375729 0.447141 0 0 0
192 0 1 0.667072 0.391159 0.492056 0 0 0
193 0 1 0.197655 0.490068 0.676264 0 0 0
194 0 1 0.257879 0.492757 0.747433 0 0 0
195 0 1 0.313201 0.493562 0.792831 0 0 0
196 0 1 0.321445 0.519732 0.861459 0 0 0
197 0 1 0.489663 0.250959 0.416589 0 0 0
198 0 1 0.54143 0.269877 0.473993 0 0 0
199 0 1 0.604137 0.295615 0.48702 0 0 0
200 0 1 0.667458 0.297986 0.511579 0 0 0
201 0 1 0.808501 0.603058 0.890412 0 0 0
202 0 1 0.872299 0.627016 0.947105 0 0 0
203 0 1 0.892174 0.692975 0.968452 0 0 0
204 0 1 0.902765 0.700802 0.995676 0 0 0
205 0 1 0.0131704 0.0232262 0.590699 0 0 0
206 0 1 0.0686706 0.0248968 0.660998 0 0 0
207 0 1 0.0981427 0.0744455 0.663874 0 0 0
208 0 1 0.152786 0.148006 0.71484 0 0 0
209 0 1 0.25684 0.277735 0.528637 0 0 0
210 0 1 0.319567 0.295626 0.568737 0 0 0
211 0 1 0.344347 0.36865 0.632994 0 0 0
212 0 1 0.392401 0.440662 0.681699 0 0 0
213 0 1 0.902767 0.677586 0.818645 0 0 0
214 0 1 0.906306 0.737581 0.866198 0 0 0
215 0 1 0.912383 0.742238 0.939234 0 0 0
216 0 1 0.947605 0.755075 0.974602 0 0 0
217 0 1 0.93819 0.664805 0.698404 0 0 0
218 0 1 0.94384 0.696801 0.769399 0 0 0
219 0 1 0.962779 0.701312 0.773165 0 0 0
220 0 1 0.987093 0.747844 0.781988 0 0 0
221 0 1 0.323231 0.502044 0.0211573 0 0 0
222 0 1 0.342159 0.561228 0.0343578 0 0 0
223 0 1 0.347581 0.620857 0.0794782 0 0 0
224 0 1 0.39624 0.64951 0.155684 0 0 0
225 0 1 0.348965 0.24566 0.178303 0 0 0
226 0 1 0.412484 0.271994 0.218418 0 0 0
227 0 1 0.420051 0.306422 0.272143 0 0 0
228 0 1 0.468831 0.328387 0.349981 0 0 0
229 0 1 0.0435841 0.443534 0.330965 0 0 0
230 0 1 0.0890007 0.493461 0.384658 0 0 0
231 0 1 0.167008 0.538 0.43802 0 0 0
232 0 1 0.21192 0.592353 0.461914 0 0 0
233 0 1 0.22768 0.0694908 0.714519 0 0 0
234 0 1 0.304498 0.0779784 0.783381 0 0 0
235 0 1 0.342314 0.139288 0.78407 0 0 0
236 0 1 0.368862 0.205999 0.852475 0 0 0
237 0 1 0.847592 0.44805 0.490606 0 0 0
238 0 1 0.883956 0.472789 0.546629 0 0 0
239 0 1 0.886046 0.530292 0.554623 0 0 0
240 0 1 0.900661 0.609517 0.563702 0 0 0
241 0 1 0.245992 0.408689 0.48032 0 0 0
242 0 1 0.312335 0.414685 0.50058 0 0 0
243 0 1 0.316114 0.444798 0.570807 0 0 0
244 0 1 0.393908 0.47702 0.576755 0 0 0
245 0 1 0.587773 0.14451 0.811535 0 0 0
246 0 1 0.617607 0.148698 0.839616 0 0 0
247 0 1 0.663903 0.200553 0.868633 0 0 0
248 0 1 0.689739 0.234876 0.891818 0 0 0
249 0 1 0.7625 0.528865 0.537487 0 0 0
250 0 1 0.832048 0.585124 0.58215 0 0 0
251 0 1 0.884043 0.623635 0.620378 0 0 0
252 0 1 0.927409 0.651768 0.678399 0 0 0
253 0 1 0.707086 0.047088 0.339662 0 0 0
254 0 1 0.759949 0.0525801 0.377762 0 0 0
255 0 1 0.785856 0.114331 0.398762 0 0 0
256 0 1 0.843219 0.116434 0.456888 0 0 0
257 0 1 0.752709 0.471501 0.571419 0 0 0
258 0 1 0.813037 0.531054 0.640051 0 0 0
259 0 1 0.821348 0.57206 0.719483 0 0 0
260 0 1 0.887122 0.64383 0.731513 0 0 0
261 0 1 0.19761 0.574018 0.451859 0 0 0
262 0 1 0.231553 0.640183 0.523971 0 0 0
263 0 1 0.278393 0.683716 0.562035 0 0 0
264 0 1 0.314473 0.753297 0.611592 0 0 0
265 0 1 0.723751 0.152789 0.442595 0 0 0
266 0 1 0.740159 0.211506 0.464311 0 0 0
267 0 1 0.751422 0.279028 0.496496 0 0 0
268 0 1 0.755603 0.321721 0.497417 0 0 0
269 0 1 0.553585 0.905248 0.630503 0 0 0
270 0 1 0.580592 0.936022 0.68845 0 0 0
271 0 1 0.611402 0.972324 0.762851 0 0 0
272 0 1 0.63171 0.974383 0.78591 0 0 0
273 0 1 0.00528144 0.0315634 0.758139 0 0 0
274 0 1 0.0461492 0.110151 0.80244 0 0 0
275 0 1 0.0707787 0.114333 0.875254 0 0 0
276 0 1 0.071903 0.156464 0.916816 0 0 0
277 0 1 0.341711 0.238839 0.389216 0 0 0
278 0 1 0.388657 0.251707 0.438233 0 0 0
279 0 1 0.391616 0.32083 0.499468 0 0 0
280 0 1 0.419692 0.392439 0.529141 0 0 0
281 0 1 0.821913 0.691668 0.311135 0 0 0
282 0 1 0.841754 0.701782 0.360536 0 0 0
283 0 1 0.897464 0.775361 0.436908 0 0 0
284 0 1 0.926463 0.841175 0.487618 0 0 0
285 0 1 0.0237911 0.0618908 0.462701 0 0 0
286 0 1 0.0387073 0.0890301 0.525248 0 0 0
287 0 1 0.117662 0.146701 0.604635 0 0 0
288 0 1 0.128312 0.224873 0.634992 0 0 0
289 0 1 0.403832 0.788509 0.512849 0 0 0
290 0 1 0.475669 0.816648 0.535389 0 0 0
291 0 1 0.518517 0.861556 0.603356 0 0 0
292 0 1 0.586906 0.93247 0.654921 0 0 0
293 0 1 0.155413 0.137762 0.69153 0 0 0
294 0 1 0.235365 0.141895 0.768477 0 0 0
295 0 1 0.313436 0.182097 0.770241 0 0 0
296 0 1 0.342537 0.230305 0.849586 0 0 0
297 0 1 0.578642 0.739487 0.352191 0 0 0
298 0 1 0.609776 0.759745 0.353685 0 0 0
299 0 1 0.639346 0.780923 0.404536 0 0 0
300 0 1 0.67595 0.792861 0.441364 0 0 0
301 0 1 0.708375 0.8348 0.452312 0 0 0
302 0 1 0.72027 0.840274 0.454158 0 0 0
303 0 1 0.751115 0.856933 0.521528 0 0 0
304 0 1 0.820389 0.931158 0.552768 0 0 0
305 0 1 0.792472 0.228211 0.294453 0 0 0
306 0 1 0.848334 0.267154 0.374424 0 0 0
307 0 1 0.920143 0.287102 0.416912 0 0 0
308 0 1 0.925478 0.337344 0.455121 0 0 0
309 0 1 0.836971 0.339492 0.361541 0 0 0
310 0 1 0.894995 0.365724 0.387118 0 0 0
311 0 1 0.966863 0.416751 0.466321 0 0 0
312 0 1 0.9972 0.467346 0.51841 0 0 0
313 0 1 0.609468 0.817709 0.659832 0 0 0
314 0 1 0.651528 0.853993 0.727356 0 0 0
315 0 1 0.685209 0.88097 0.730176 0 0 0
316 0 1 0.742827 0.891056 0.772118 0 0 0
317 0 1 0.0555979 0.564071 0.452013 0 0 0
318 0 1 0.117333 0.568612 0.477513 0 0 0
319 0 1 0.126231 0.595766 0.528223 0 0 0
320 0 1 0.152804 0.661283 0.593711 0 0 0
321 0 1 0.524729 0.162573 0.152607 0 0 0
322 0 1 0.567275 0.175713 0.217837 0 0 0
323 0 1 0.634163 0.185439 0.22125 0 0 0
324 0 1 0.667869 0.261374 0.296244 0 0 0
325 0 1 0.634019 0.16542 0.149132 0 0 0
326 0 1 0.656542 0.204008 0.205632 0 0 0
327 0 1 0.6818 0.214683 0.269094 0 0 0
328 0 1 0.707321 0.276488 0.318423 0 0 0
329 0 1 0.0376358 0.374851 0.410103 0 0 0
330 0 1 0.0480616 0.395364 0.472557 0 0 0
331 0 1 0.114964 0.427391 0.540746 0 0 0
332 0 1 0.164887 0.481856 0.620711 0 0 0
333 0 1 0.110779 0.450207 0.0840889 0 0 0
334 0 1 0.144079 0.469024 0.0883945 0 0 0
335 0 1 0.205682 0.527871 0.106973 0 0 0
336 0 1 0.269327 0.606827 0.159447 0 0 0
337 0 1 0.508651 0.400566 0.654022 0 0 0
338 0 1 0.559274 0.475721 0.699286 0 0 0
339 0 1 0.566517 0.49597 0.731744 0 0 0
340 0 1 0.641519 0.504113 0.805117 0 0 0
341 0 1 0.54768 0.804081 0.584758 0 0 0
342 0 1 0.581363 0.869792 0.638657 0 0 0
343 0 1 0.605186 0.94808 0.71691 0 0 0
344 0 1 0.612301 0.991211 0.766768 0 0 0
345 0 1 0.0394895 0.274705 0.328525 0 0 0
346 0 1 0.0473741 0.341437 0.333835 0 0 0
347 0 1 0.11633 0.409348 0.37422 0 0 0
348 0 1 0.129306 0.412545 0.374347 0 0 0
349 0 1 0.0659318 0.389654 0.820931 0 0 0
350 0 1 0.0825186 0.425503 0.853278 0 0 0
351 0 1 0.155558 0.450588 0.930685 0 0 0
352 0 1 0.203587 0.493772 0.939133 0 0 0
353 0 1 0.196137 0.449245 0.854961 0 0 0
354 0 1 0.259536 0.520789 0.919878 0 0 0
355 0 1 0.304714 0.555953 0.948443 0 0 0
356 0 1 0.360385 0.634666 0.96519 0 0 0
357 0 1 0.0687999 0.0936767 0.267685 0 0 0
358 0 1 0.126658 0.146566 0.292106 0 0 0
359 0 1 0.147869 0.175241 0.311708 0 0 0
360 0 1 0.183917 0.209542 0.313589 0 0 0
361 0 1 0.655921 0.663176 0.0805336 0 0 0
362 0 1 0.706178 0.697759 0.0818979 0 0 0
363 0 1 0.741225 0.718516 0.156554 0 0 0
364 0 1 0.759704 0.735283 0.171573 0 0 0
365 0 1 0.27668 0.815826 0.43906 0 0 0
366 0 1 0.314964 0.876086 0.445602 0 0 0
367 0 1 0.329391 0.877245 0.452071 0 0 0
368 0 1 0.404816 0.94058 0.475791 0 0 0
369 0 1 0.458702 0.498673 0.50026 0 0 0
370 0 1 0.503997 0.575141 0.562402 0 0 0
371 0 1 0.582726 0.609719 0.629327 0 0 0
372 0 1 0.642691 0.614768 0.631783 0 0 0
373 0 1 0.631054 0.170848 0.276449 0 0 0
374 0 1 0.668861 0.244594 0.338592 0 0 0
375 0 1 0.714404 0.281681 0.360595 0 0 0
376 0 1 0.781586 0.304027 0.411506 0 0 0
377 0 1 0.332271 0.316176 0.525519 0 0 0
378 0 1 0.379817 0.371216 0.601974 0 0 0
379 0 1 0.434129 0.398418 0.653596 0 0 0
380 0 1 0.506963 0.419927 0.694707 0 0 0
381 0 1 0.332032 0.591496 0.524695 0 0 0
382 0 1 0.392487 0.668717 0.536936 0 0 0
383 0 1 0.426861 0.688358 0.591701 0 0 0
384 0 1 0.439911 0.761668 0.671554 0 0 0
385 0 1 0.178492 0.192975 0.273836 0 0 0
386 0 1 0.195823 0.193641 0.298222 0 0 0
387 0 1 0.256905 0.214618 0.359219 0 0 0
388 0 1 0.283198 0.237378 0.364121 0 0 0
389 0 1 0.045391 0.477616 0.314181 0 0 0
390 0 1 0.0504901 0.487764 0.326785 0 0 0
391 0 1 0.113578 0.56452 0.345657 0 0 0
392 0 1 0.170257 0.614946 0.378226 0 0 0
393 0 1 0.802764 0.118941 0.64446 0 0 0
394 0 1 0.821867 0.193083 0.715056 0 0 0
395 0 1 0.866775 0.265193 0.758789 0 0 0
396 0 1 0.903342 0.323268 0.777975 0 0 0
397 0 1 0.20431 0.597546 0.0142984 0 0 0
398 0 1 0.211268 0.663371 0.0654347 0 0 0
399 0 1 0.217972 0.740227 0.133806 0 0 0
400 0 1 0.232906 0.80248 0.158035 0 0 0
401 0 1 0.0585429 0.0238047 0.176809 0 0 0
402 0 1 0.107062 0.0919649 0.219734 0 0 0
403 0 1 0.163038 0.14125 0.268872 0 0 0
404 0 1 0.226454 0.220105 0.289634 0 0 0
405 0 1 0.476163 0.484493 0.789322 0 0 0
406 0 1 0.520391 0.549698 0.835524 0 0 0
407 0 1 0.592885 0.564952 0.85568 0 0 0
408 0 1 0.616673 0.626949 0.862812 0 0 0
409 0 1 0.152882 0.279737 0.437287 0 0 0
410 0 1 0.170954 0.294564 0.470987 0 0 0
411 0 1 0.181332 0.355369 0.48436 0 0 0
412 0 1 0.192817 0.402052 0.508245 0 0 0
413 0 1 0.33348 0.234858 0.781519 0 0 0
414 0 1 0.352567 0.312022 0.797868 0 0 0
415 0 1 0.385262 0.31252 0.79951 0 0 0
416 0 1 0.393861 0.386945 0.845071 0 0 0
417 0 1 0.653321 0.614015 0.468655 0 0 0
418 0 1 0.705748 0.648695 0.527564 0 0 0
419 0 1 0.76934 0.714192 0.607205 0 0 0
420 0 1 0.8175 0.750512 0.686452 0 0 0
421 0 1 0.261307 0.0763635 0.653884 0 0 0
422 0 1 0.306112 0.136422 0.654099 0 0 0
423 0 1 0.330115 0.142423 0.667231 0 0 0
424 0 1 0.355477 0.190164 0.669955 0 0 0
425 0 1 0.802488 0.48994 0.647884 0 0 0
426 0 1 0.851176 0.544999 0.680872 0 0 0
427 0 1 0.881195 0.566191 0.683834 0 0 0
428 0 1 0.910835 0.61462 0.714784 0 0 0
429 0 1 0.625477 0.590018 0.794386 0 0 0
430 0 1 0.641722 0.606761 0.81277 0 0 0
431 0 1 0.668706 0.628171 0.879741 0 0 0
432 0 1 0.707943 0.636529 0.925592 0 0 0
433 0 1 0.228457 0.661953 0.398313 0 0 0
434 0 1 0.243914 0.662907 0.398908 0 0 0
435 0 1 0.29267 0.667983 0.403231 0 0 0
436 0 1 0.352215 0.672036 0.480929 0 0 0
437 0 1 0.684488 0.383444 0.341921 0 0 0
438 0 1 0.746613 0.439099 0.374252 0 0 0
439 0 1 0.79985 0.498445 0.405908 0 0 0
440 0 1 0.87631 0.554965 0.462644 0 0 0
441 0 1 0.00922919 0.0842306 0.248375 0 0 0
442 0 1 0.0544614 0.0972039 0.264073 0 0 0
443 0 1 0.0909543 0.16932 0.325512 0 0 0
444 0 1 0.152095 0.210966 0.361037 0 0 0
445 0 1 0.511111 0.161696 0.11084 0 0 0
446 0 1 0.584177 0.193957 0.114933 0 0 0
447 0 1 0.636957 0.221796 0.17576 0 0 0
448 0 1 0.647803 0.253835 0.21076 0 0 0
449 0 1 0.808002 0.413362 0.80024 0 0 0
450 0 1 0.842059 0.41462 0.86505 0 0 0
451 0 1 0.843114 0.432418 0.901232 0 0 0
452 0 1 0.906281 0.436994 0.972779 0 0 0
453 0 1 0.384796 0.48927 0.0623992 0 0 0
454 0 1 0.408064 0.565494 0.0904889 0 0 0
455 0 1 0.451611 0.609995 0.135585 0 0 0
456 0 1 0.465463 0.628923 0.158836 0 0 0
457 0 1 0.0349624 0.085621 0.0568393 0 0 0
458 0 1 0.0942686 0.0956027 0.0941747 0 0 0
459 0 1 0.113729 0.170718 0.121622 0 0 0
460 0 1 0.114412 0.230747 0.133307 0 0 0
461 0 1 0.101824 0.808322 0.517512 0 0 0
462 0 1 0.143963 0.857199 0.586259 0 0 0
463 0 1 0.177943 0.904152 0.64891 0 0 0
464 0 1 0.197087 0.915412 0.721609 0 0 0
465 0 1 0.672991 0.193572 0.637638 0 0 0
466 0 1 0.68489 0.218408 0.671341 0 0 0
467 0 1 0.71166 0.277438 0.734464 0 0 0
468 0 1 0.747562 0.34118 0.779032 0 0 0
469 0 1 0.692683 0.0931622 0.530663 0 0 0
470 0 1 0.719776 0.153324 0.574844 0 0 0
471 0 1 0.798015 0.232822 0.639152 0 0 0
472 0 1 0.863376 0.235981 0.678493 0 0 0
473 0 1 0.281353 0.338553 0.232889 0 0 0
474 0 1 0.330768 0.347109 0.246438 0 0 0
475 0 1 0.367585 0.38015 0.307569 0 0 0
476 0 1 0.392263 0.449329 0.341844 0 0 0
477 0 1 0.601579 0.838181 0.128825 0 0 0
478 0 1 0.614682 0.858134 0.153325 0 0 0
479 0 1 0.618488 0.871921 0.204448 0 0 0
480 0 1 0.689071 0.93762 0.217595 0 0 0
481 0 1 0.0236977 0.634669 0.494016 0 0 0
482 0 1 0.0971989 0.675124 0.517121 0 0 0
483 0 1 0.139448 0.728632 0.563328 0 0 0
484 0 1 0.159494 0.764164 0.569871 0 0 0
485 0 1 0.272578 0.0693457 0.626451 0 0 0
486 0 1 0.298109 0.102329 0.701888 0 0 0
487 0 1 0.320639 0.105022 0.748762 0 0 0
488 0 1 0.365751 0.149631 0.777678 0 0 0
489 0 1 0.178481 0.217974 0.709746 0 0 0
490 0 1 0.257769 0.244346 0.754749 0 0 0
491 0 1 0.272187 0.26732 0.791272 0 0 0
492 0 1 0.345526 0.293701 0.798784 0 0 0
493 0 1 0.402382 0.267119 0.695554 0 0 0
494 0 1 0.426152 0.277944 0.716685 0 0 0
495 0 1 0.460387 0.332131 0.795371 0 0 0
496 0 1 0.462879 0.348412 0.862775 0 0 0
497 0 1 0.724839 0.546076 0.710405 0 0 0
498 0 1 0.795501 0.610597 0.78047 0 0 0
499 0 1 0.799256 0.612708 0.822337 0 0 0
500 0 1 0.843019 0.627245 0.876395 0 0 0
501 0 1 0.594489 0.10017 0.388983 0 0 0
502 0 1 0.667856 0.147045 0.402065 0 0 0
503 0 1 0.700985 0.215705 0.477268 0 0 0
504 0 1 0.71463 0.272629 0.531174 0 0 0
505 0 1 0.0259162 0.313096 0.76963 0 0 0
506 0 1 0.0808261 0.314387 0.778433 0 0 0
507 0 1 0.12182 0.376751 0.816441 0 0 0
508 0 1 0.183598 0.449354 0.830175 0 0 0
509 0 1 0.599606 0.27694 0.260523 0 0 0
510 0 1 0.62294 0.316555 0.287542 0 0 0
511 0 1 0.627946 0.365247 0.313066 0 0 0
512 0 1 0.644133 0.365955 0.383839 0 0 0
513 0 1 0.886532 0.472475 0.636003 0 0 0
514 0 1 0.89054 0.545144 0.703875 0 0 0
515 0 1 0.892058 0.603585 0.736221 0 0 0
516 0 1 0.92206 0.634024 0.753001 0 0 0
517 0 1 0.311582 0.482763 0.280395 0 0 0
518 0 1 0.343355 0.556861 0.312255 0 0 0
519 0 1 0.355506 0.631996 0.337248 0 0 0
520 0 1 0.375469 0.691538 0.385286 0 0 0
521 0 1 0.635147 0.8878 0.850199 0 0 0
522 0 1 0.699443 0.894748 0.924802 0 0 0
523 0 1 0.776119 0.916472 0.928096 0 0 0
524 0 1 0.834323 0.975967 0.996395 0 0 0
525 0 1 0.366154 0.145695 0.620791 0 0 0
526 0 1 0.397595 0.16974 0.65857 0 0 0
527 0 1 0.403343 0.197643 0.707315 0 0 0
528 0 1 0.475422 0.229337 0.766028 0 0 0
529 0 1 0.796486 0.405135 0.724189 0 0 0
530 0 1 0.870608 0.479965 0.789792 0 0 0
531 0 1 0.930739 0.536734 0.805068 0 0 0
532 0 1 0.948284 0.571086 0.830283 0 0 0
533 0 1 0.79548 0.375938 0.345379 0 0 0
534 0 1 0.814033 0.432289 0.37261 0 0 0
535 0 1 0.845272 0.456197 0.38439 0 0 0
536 0 1 0.858569 0.527935 0.408474 0 0 0
537 0 1 0.676085 0.0565738 0.26632 0 0 0
538 0 1 0.722317 0.061427 0.293605 0 0 0
539 0 1 0.781375 0.114583 0.29862 0 0 0
540 0 1 0.798542 0.126885 0.335916 0 0 0
541 0 1 0.715725 0.459995 0.0604628 0 0 0
542 0 1 0.771374 0.506668 0.0951515 0 0 0
543 0 1 0.790358 0.5326 0.115687 0 0 0
544 0 1 0.80757 0.571535 0.157916 0 0 0
545 0 1 0.378504 0.679063 0.151302 0 0 0
546 0 1 0.396355 0.724818 0.165801 0 0 0
547 0 1 0.402934 0.76309 0.182787 0 0 0
548 0 1 0.403638 0.796206 0.193838 0 0 0
549 0 1 0.0646535 2.32938e-05 0.820056 0 0 0
550 0 1 0.110389 0.0225284 0.857837 0 0 0
551 0 1 0.165715 0.0322063 0.892731 0 0 0
552 0 1 0.184247 0.0808128 0.968968 0 0 0
553 0 1 0.184872 0.889258 0.229647 0 0 0
554 0 1 0.234483 0.962777 0.234946 0 0 0
555 0 1 0.253079 0.973111 0.269364 0 0 0
556 0 1 0.261584 0.986142 0.3037 0 0 0
557 0 1 0.00710754 0.0677723 0.408833 0 0 0
558 0 1 0.0188719 0.132693 0.478768 0 0 0
559 0 1 0.0259749 0.152098 0.53547 0 0 0
560 0 1 0.0599342 0.222857 0.611066 0 0 0
561 0 1 0.640559 0.223968 0.657577 0 0 0
562 0 1 0.712149 0.241491 0.695635 0 0 0
563 0 1 0.767418 0.255695 0.752069 0 0 0
564 0 1 0.844286 0.332492 0.817093 0 0 0
565 0 1 0.0318042 0.396498 0.381983 0 0 0
566 0 1 0.0926431 0.431662 0.429251 0 0 0
567 0 1 0.157763 0.462536 0.474625 0 0 0
568 0 1 0.209715 0.472761 0.501835 0 0 0
569 0 1 0.591378 0.19896 0.151921 0 0 0
570 0 1 0.618322 0.217044 0.188377 0 0 0
571 0 1 0.624389 0.296631 0.193263 0 0 0
572 0 1 0.64787 0.330446 0.261496 0 0 0
573 0 1 0.332405 0.216891 0.16184 0 0 0
574 0 1 0.396597 0.219 0.216555 0 0 0
575 0 1 0.442903 0.282829 0.238442 0 0 0
576 0 1 0.520059 0.294189 0.306235 0 0 0
577 0 1 0.808269 0.76823 0.581035 0 0 0
578 0 1 0.857296 0.768977 0.612341 0 0 0
579 0 1 0.86944 0.816285 0.626918 0 0 0
580 0 1 0.949137 0.846856 0.702862 0 0 0
581 0 1 0.598705 0.726513 0.0666429 0 0 0
582 0 1 0.631951 0.74079 0.0730007 0 0 0
583 0 1 0.635562 0.741656 0.136727 0 0 0
584 0 1 0.647883 0.805077 0.209028 0 0 0
585 0 1 0.610581 0.732698 0.28402 0 0 0
586 0 1 0.677977 0.77019 0.324315 0 0 0
587 0 1 0.732839 0.824539 0.368087 0 0 0
588 0 1 0.773138 0.88077 0.416951 0 0 0
589 0 1 0.247039 0.015269 0.596304 0 0 0
590 0 1 0.263771 0.0327475 0.645088 0 0 0
591 0 1 0.3247 0.0609847 0.687902 0 0 0
592 0 1 0.36721 0.134066 0.756928 0 0 0
593 0 1 0.461526 0.188039 0.254682 0 0 0
594 0 1 0.515146 0.255936 0.328937 0 0 0
595 0 1 0.593013 0.334669 0.391396 0 0 0
596 0 1 0.667793 0.39287 0.441898 0 0 0
597 0 1 0.53002 0.262718 0.546737 0 0 0
598 0 1 0.561155 0.331345 0.575659 0 0 0
599 0 1 0.564939 0.389478 0.597565 0 0 0
600 0 1 0.627143 0.427913 0.604864 0 0 0
601 0 1 0.0344389 0.194532 0.516464 0 0 0
602 0 1 0.0857025 0.257851 0.566555 0 0 0
603 0 1 0.0888706 0.277925 0.625422 0 0 0
604 0 1 0.103685 0.340048 0.642646 0 0 0
605 0 1 0.462345 0.477614 0.073918 0 0 0
606 0 1 0.48499 0.517737 0.0828256 0 0 0
607 0 1 0.554826 0.535811 0.143713 0 0 0
608 0 1 0.578224 0.55229 0.149218 0 0 0
609 0 1 0.393567 0.377727 0.15846 0 0 0
610 0 1 0.401023 0.443384 0.194619 0 0 0
611 0 1 0.464193 0.503961 0.251777 0 0 0
612 0 1 0.484417 0.549651 0.317488 0 0 0
613 0 1 0.340364 0.354126 0.318363 0 0 0
614 0 1 0.365077 0.379775 0.351525 0 0 0
615 0 1 0.435812 0.391957 0.357261 0 0 0
616 0 1 0.48395 0.461112 0.390156 0 0 0
617 0 1 0.800369 0.658207 0.0197316 0 0 0
618 0 1 0.805732 0.721703 0.0251333 0 0 0
619 0 1 0.873338 0.747745 0.0584738 0 0 0
620 0 1 0.909434 0.799403 0.0714491 0 0 0
621 0 1 0.802987 0.59448 0.220614 0 0 0
622 0 1 0.823804 0.635371 0.240372 0 0 0
623 0 1 0.858377 0.652067 0.274292 0 0 0
624 0 1 0.929285 0.681184 0.309322 0 0 0
625 0 1 0.720939 0.222482 0.333828 0 0 0
626 0 1 0.737481 0.257098 0.349331 0 0 0
627 0 1 0.776383 0.312479 0.410216 0 0 0
628 0 1 0.799694 0.31326 0.488842 0 0 0
629 0 1 0.626137 0.118175 0.538409 0 0 0
630 0 1 0.700695 0.142952 0.575862 0 0 0
631 0 1 0.745604 0.173517 0.642586 0 0 0
632 0 1 0.795499 0.203989 0.650217 0 0 0
633 0 1 0.507455 0.3719 0.783082 0 0 0
634 0 1 0.554131 0.391233 0.803994 0 0 0
635 0 1 0.580405 0.401002 0.819165 0 0 0
636 0 1 0.583183 0.429822 0.881325 0 0 0
637 0 1 0.228191 0.873918 0.0361098 0 0 0
638 0 1 0.295319 0.908604 0.088445 0 0 0
639 0 1 0.368471 0.942648 0.142247 0 0 0
640 0 1 0.376846 0.967718 0.201237 0 0 0
641 0 1 0.0795492 0.451449 0.234532 0 0 0
642 0 1 0.144988 0.456221 0.260214 0 0 0
643 0 1 0.196944 0.517947 0.337111 0 0 0
644 0 1 0.276619 0.54644 0.347765 0 0 0
645 0 1 0.361361 0.235279 0.271389 0 0 0
646 0 1 0.3702 0.278804 0.287249 0 0 0
647 0 1 0.379212 0.32186 0.304107 0 0 0
648 0 1 0.404445 0.372163 0.3334 0 0 0
649 0 1 0.531006 0.873298 0.409383 0 0 0
650 0 1 0.565545 0.885005 0.459144 0 0 0
651 0 1 0.596671 0.898277 0.533188 0 0 0
652 0 1 0.621579 0.963502 0.601803 0 0 0
653 0 1 0.83203 0.116081 0.868296 0 0 0
654 0 1 0.84658 0.186284 0.900875 0 0 0
655 0 1 0.891429 0.193876 0.958841 0 0 0
656 0 1 0.947623 0.241841 0.977831 0 0 0
657 0 1 0.276536 0.254107 0.657237 0 0 0
658 0 1 0.293086 0.264145 0.716989 0 0 0
659 0 1 0.315317 0.276241 0.761835 0 0 0
660 0 1 0.394703 0.287333 0.822688 0 0 0
661 0 1 0.149736 0.315639 0.241193 0 0 0
662 0 1 0.193939 0.345066 0.259235 0 0 0
663 0 1 0.198543 0.358957 0.26259 0 0 0
664 0 1 0.216448 0.367064 0.303276 0 0 0
665 0 1 0.069189 0.164096 0.888673 0 0 0
666 0 1 0.116477 0.179348 0.922915 0 0 0
667 0 1 0.147216 0.218906 0.963894 0 0 0
668 0 1 0.187215 0.286166 0.990463 0 0 0
669 0 1 0.655807 0.645874 0.208036 0 0 0
670 0 1 0.723786 0.721307 0.229684 0 0 0
671 0 1 0.757088 0.771034 0.241519 0 0 0
672 0 1 0.782988 0.792724 0.255896 0 0 0
673 0 1 0.0842457 0.344948 0.738819 0 0 0
674 0 1 0.12377 0.383713 0.798537 0 0 0
675 0 1 0.133278 0.386536 0.810536 0 0 0
676 0 1 0.163466 0.39797 0.820073 0 0 0
677 0 1 0.410903 0.331387 0.618035 0 0 0
678 0 1 0.482469 0.343281 0.682508 0 0 0
679 0 1 0.483491 0.354341 0.75332 0 0 0
680 0 1 0.496535 0.37948 0.823305 0 0 0
681 0 1 0.867132 0.00578735 0.766451 0 0 0
682 0 1 0.940427 0.0243334 0.804293 0 0 0
683 0 1 0.942472 0.0558055 0.853807 0 0 0
684 0 1 0.99659 0.123815 0.925171 0 0 0
685 0 1 0.115865 0.217203 0.725773 0 0 0
686 0 1 0.179462 0.293928 0.793592 0 0 0
687 0 1 0.214568 0.344286 0.798192 0 0 0
688 0 1 0.249908 0.419184 0.83407 0 0 0
689 0 1 0.480766 0.423673 0.694272 0 0 0
690 0 1 0.48961 0.482244 0.764678 0 0 0
691 0 1 0.505916 0.52024 0.817051 0 0 0
692 0 1 0.565028 0.526948 0.882865 0 0 0
693 0 1 0.316729 0.801292 0.547755 0 0 0
694 0 1 0.370057 0.857444 0.615907 0 0 0
695 0 1 0.388398 0.887218 0.655217 0 0 0
696 0 1 0.46058 0.905911 0.723353 0 0 0
697 0 1 0.589768 0.0134407 0.707712 0 0 0
698 0 1 0.655228 0.0574721 0.74215 0 0 0
699 0 1 0.705972 0.0662112 0.803262 0 0 0
700 0 1 0.746197 0.113145 0.83601 0 0 0
701 0 1 0.726077 0.527369 0.0751247 0 0 0
702 0 1 0.785415 0.56286 0.0987669 0 0 0
703 0 1 0.827398 0.634615 0.129833 0 0 0
704 0 1 0.850646 0.676557 0.15991 0 0 0
705 0 1 0.12224 0.0171888 0.718053 0 0 0
706 0 1 0.156776 0.0398767 0.719705 0 0 0
707 0 1 0.230435 0.0506823 0.737642 0 0 0
708 0 1 0.244875 0.0620877 0.807329 0 0 0
709 0 1 0.515796 0.39233 0.741882 0 0 0
710 0 1 0.525155 0.46317 0.763717 0 0 0
711 0 1 0.552104 0.483241 0.768277 0 0 0
712 0 1 0.63042 0.492691 0.846921 0 0 0
713 0 1 0.64295 0.261907 0.728595 0 0 0
714 0 1 0.693679 0.275435 0.789523 0 0 0
715 0 1 0.757346 0.336741 0.804344 0 0 0
716 0 1 0.801558 0.393479 0.883313 0 0 0
717 0 1 0.0421182 0.5201 0.629101 0 0 0
718 0 1 0.0596278 0.538685 0.704303 0 0 0
719 0 1 0.12029 0.563379 0.763434 0 0 0
720 0 1 0.150165 0.601992 0.783161 0 0 0
721 0 1 0.74939 0.336061 0.745409 0 0 0
722 0 1 0.787109 0.41597 0.751328 0 0 0
723 0 1 0.852366 0.436717 0.795717 0 0 0
724 0 1 0.858738 0.514844 0.824911 0 0 0
725 0 1 0.655522 0.179791 0.555759 0 0 0
726 0 1 0.709762 0.235406 0.588819 0 0 0
727 0 1 0.777357 0.245689 0.600753 0 0 0
728 0 1 0.782951 0.262088 0.63509 0 0 0
729 0 1 0.609712 0.75228 0.623369 0 0 0
730 0 1 0.620845 0.7948 0.645239 0 0 0
731 0 1 0.652074 0.816869 0.689144 0 0 0
732 0 1 0.722928 0.827794 0.704628 0 0 0
733 0 1 0.172508 0.290623 0.273675 0 0 0
734 0 1 0.245838 0.304906 0.346245 0 0 0