LAMMPS data file

20 atoms
16 bonds
1 atom types
1 bond types

0 1 xlo xhi
0 1 ylo yhi
0 1 zlo zhi

Masses

1 1

Atoms # bond

1 0 1 0.5 0.5 0.6 0 0 0
2 0 1 0.6 0.6 0.6 0 0 0
3 0 1 0.7 0.7 0.6 0 0 0
4 0 1 0.8 0.8 0.6 0 0 0
5 0 1 0.9 0.9 0.6 0 0 0
6 0 1 0.5 0.8 0.4 0 0 0
7 0 1 0.6 0.7 0.4 0 0 0
8 0 1 0.7 0.6 0.4 0 0 0
9 0 1 0.8 0.5 0.4 0 0 0
10 0 1 0.9 0.4 0.4 0 0 0
11 0 1 0.5 0.5 0.8 0 0 0
12 0 1 0.6 0.6 0.8 0 0 0
13 0 1 0.7 0.7 0.8 0 0 0
14 0 1 0.8 0.8 0.8 0 0 0
15 0 1 0.9 0.9 0.8 0 0 0
16 0 1 0.5 0.8 0.2 0 0 0
17 0 1 0.6 0.7 0.2 0 0 0
18 0 1 0.7 0.6 0.2 0 0 0
19 0 1 0.8 0.5 0.2 0 0 0
20 0 1 0.9 0.4 0.2 0 0 0


Bonds

1 1 1 2
2 1 2 3
3 1 3 4
4 1 4 5
5 1 6 7
6 1 7 8
7 1 8 9
8 1 9 10
9 1 11 12
10 1 12 13
11 1 13 14
12 1 14 15
13 1 16 17
14 1 17 18
15 1 18 19
16 1 19 20
