LAMMPS data file via write_data, version 31 Aug 2021, timestep = 0

10 atoms
9 bonds
1 atom types
1 bond types

0 1 xlo xhi
0 1 ylo yhi
0 1 zlo zhi

Masses

1 1

Atoms # bond

1 0 1 0.910652394830553 0.3347999171050265 0.9822067841804618 0 0 0
2 0 1 0.9494217210213755 0.9308652062578431 0.051521575568021075 0 0 0
3 0 1 0.9231205717302489 0.8874490702931997 0.3565244178085236 0 0 0
4 0 1 0.10589010785608091 0.6950427371519817 0.5832833133560062 0 0 0
5 0 1 0.2426475743961742 0.17778287649982744 0.9968053325995828 0 0 0
6 0 1 0.3072250011876342 0.5305949605678185 0.7095022633250347 0 0 0
7 0 1 0.6045397038592676 0.49880276271086316 0.3780328814769317 0 0 0
8 0 1 0.5986389827908198 0.3253837653088308 0.7249435455188824 0 0 0
9 0 1 0.12616953585584162 0.5313891291298853 0.05709328598207482 0 0 0
10 0 1 0.566857500731413 0.17401479285862986 0.6666235749920009 0 0 0

Velocities

1 0 0 0
2 0 0 0
3 0 0 0
4 0 0 0
5 0 0 0
6 0 0 0
7 0 0 0
8 0 0 0
9 0 0 0
10 0 0 0
