# vtk DataFile Version 2.0
Interface from PLIC
ASCII
DATASET POLYDATA
POINTS 142 float
0.125 0 0.01946048942420975
0.02026535803003553 0 0.125
0.125 0.0161260576841777 0.125
0.25 0.06444433535093337 0
0.1450456472472612 0 0
0.125 0 0.06222353095304058
0.125 0.01241785574065214 0.125
0.25 0.08917066977443182 0.125
0.3005809269212812 0.125 0.125
0.25 0.06633218654909431 0.125
0.25 0.03025656073442064 0
0.3316838176826434 0.125 0
0.2763638304437311 0.125 0.125
0.3082221312634054 0.125 0
0.3670789981118207 0.25 0
0.3352206972921464 0.25 0.125
0.3347521404681105 0.25 0.125
0.337988378867887 0.375 0.125
0.364815453647421 0.375 0
0.3615792152476445 0.25 0
0.2861726753030301 0.5 0.125
0.3164845551048148 0.5 0
0.3686279200032548 0.375 0
0.3383160402014702 0.375 0.125
0.25 0.5769845380847854 0
0.1897138208580731 0.625 0
0.1525723950599956 0.625 0.125
0.25 0.5474029201871589 0.125
0.2894103886580223 0.5 0.125
0.25 0.550206768385013 0.125
0.25 0.5892883813334373 0
0.3200879567474187 0.5 0
0 0.6954404203484151 0
0.125 0.667337256107426 0
0.125 0.6389378703599824 0.125
0 0.6670410346009715 0.125
0.125 0.6413395379862479 0.125
0.15196026208941 0.625 0.125
0.1956490398868846 0.625 0
0.125 0.6678175611607696 0
0 0.06395968763965791 0.25
0 0 0.1455737084366873
0.06326883129877464 0 0.125
0.125 0.0122948644911596 0.125
0.125 0.08885566958409895 0.25
0.125 0.08112205929439251 0.25
0.1812046649448381 0.125 0.25
0.25 0.125 0.1811612232825767
0.25 0.08118364177480583 0.125
0.1460092631609853 0 0.125
0.125 0 0.1460225297191592
0.25 0.125 0.1946163061386778
0.25 0.06406505482555977 0.125
0.2975779475190474 0.125 0.125
0.25 0.2360829599050109 0.25
0.25 0.125 0.1766201073899573
0.1767397182027548 0.125 0.25
0.2656072223581632 0.125 0.125
0.25 0.125 0.1463781447157298
0.25 0.25 0.2344129488688422
0.3298774750833222 0.25 0.125
0.25 0.253128525873115 0.25
0.25 0.25 0.249877797289341
0.2498780452597715 0.25 0.25
0.3474685007094381 0.375 0.125
0.3430826380038652 0.25 0.125
0.2568840005209376 0.25 0.25
0.2612698632265105 0.375 0.25
0.25 0.3792103326865175 0.25
0.25 0.5 0.1805725966189902
0.1806086128844541 0.5 0.25
0.282314764625587 0.5 0.125
0.25 0.5 0.1701515165344535
0.25 0.3789605233829874 0.25
0.2518699107221445 0.375 0.25
0.3413319241434676 0.375 0.125
0 0.5759954739034879 0.25
0 0.625 0.1886079626399393
0.125 0.625 0.1519197158071842
0.125 0.5467100775123158 0.25
0.25 0.5564287871256636 0.125
0.25 0.5 0.1919193498830818
0.1918832615170145 0.5 0.25
0.125 0.5563633348122501 0.25
0.125 0.625 0.1686032299032341
0.1686303227356886 0.625 0.125
0.25 0.5 0.1919504824372126
0.25 0.5568873016473426 0.125
0.2925501530512889 0.5 0.125
0.125 0.6412707731842443 0.125
0.125 0.625 0.151765037619839
0 0.625 0.1948334830259587
0 0.6674525748523115 0.125
0.1724671961637212 0.625 0.125
0.125 0.625 0.1722105888944355
0.125 0.6506638811686658 0.125
0.125 0.125 0.3006777732077879
0.125 0.06623016457769773 0.25
0 0.02994714524868469 0.25
0 0.125 0.331964956703145
0.1944771698344658 0.125 0.25
0.125 0.06401807226732756 0.25
0.125 0.125 0.2975800050750489
0.125 0.125 0.2766065155753642
0 0.125 0.3087161728697391
0 0.25 0.3675079372315917
0.125 0.25 0.3353982799372169
0.125 0.125 0.265311754817675
0.1459540328143779 0.125 0.25
0.2339089319081159 0.25 0.25
0.125 0.25 0.3295830987573761
0.125 0.25 0.33501205604422
0.125 0.375 0.3382119564871631
0 0.375 0.3651142468887231
0 0.25 0.36191434644578
0.125 0.375 0.3477011215356209
0.125 0.25 0.3429887676244207
0.25 0.25 0.2566506382886631
0.25 0.375 0.2613629921998633
0.2541455104019211 0.25 0.25
0.25 0.25 0.2541489354596091
0.25 0.375 0.2599755078542727
0.2599672728045352 0.375 0.25
0.125 0.5 0.2860047836337516
0 0.5 0.3160845523736348
0 0.375 0.3688395306000387
0.125 0.375 0.3387597618601554
0.125 0.5 0.2831028082642936
0.1711216703088515 0.5 0.25
0.25 0.3801162564695973 0.25
0.25 0.375 0.2524160700844108
0.125 0.375 0.3421320540313879
0.25 0.389728548623861 0.25
0.25 0.375 0.25642307149758
0.2564034966034495 0.375 0.25
0.125 0.5 0.2888447482747576
0.125 0.5494525852043051 0.25
0 0.5879224818361229 0.25
0 0.5 0.3190626518412798
0.1918543283019497 0.5 0.25
0.125 0.556398838897449 0.25
0.125 0.5 0.2923701595716326
POLYGONS 36 178
3 0 1 2
5 3 4 5 6 7
4 8 9 10 11
4 12 13 14 15
4 16 17 18 19
4 20 21 22 23
4 24 25 26 27
4 28 29 30 31
4 32 33 34 35
4 36 37 38 39
5 40 41 42 43 44
6 45 46 47 48 49 50
3 51 52 53
3 54 55 56
4 57 58 59 60
3 61 62 63
4 64 65 66 67
3 68 69 70
5 71 72 73 74 75
4 76 77 78 79
6 80 81 82 83 84 85
3 86 87 88
4 89 90 91 92
3 93 94 95
4 96 97 98 99
3 100 101 102
4 103 104 105 106
4 107 108 109 110
4 111 112 113 114
4 115 116 117 118
4 119 120 121 122
4 123 124 125 126
5 127 128 129 130 131
3 132 133 134
4 135 136 137 138
3 139 140 141
CELL_DATA 36
SCALARS cl float
LOOKUP_TABLE default
0
0
0
0
0
0
0
0
0
0
0
0
0
0
0
0
0
0
0
0
0
0
0
0
0
0
0
0
0
0
0
0
0
0
0
0
