<?xml version="1.0"?>
<VTKFile type="StructuredGrid" version="0.1" byte_order="LittleEndian">
  <StructuredGrid WholeExtent="0 8 0 8 0 8">
    <Piece Extent="0 8 0 8 0 8">
      <PointData>
      </PointData>
      <CellData>
        <DataArray Name="vy" NumberOfComponents="1" type="Float32" format="ascii">
0.94834388947500380951 0.99091512471200327017 0.97965256629870778315 0.97770064851717441989 0.97770064449207982893 0.97965256946474721378 0.99091512194517450407 0.94834389041815592147 0.82652188387579639262 0.95423987526636933065 0.9336350923090123155 0.92502143010545401225 0.92502144490200954863 0.93363508035437292598 0.95423988401253467817 0.82652188560890405 0.67677105740825116431 0.88728055295299534944 0.87657597427421685143 0.86216491760829672142 0.86216490558801761601 0.876575984958254395 0.88728054395982891567 0.67677105590671815527 0.55897907371835187096 0.81639886381047810371 0.82445892406602239166 0.80965251840125618266 0.80965252938784149084 0.82445891377010305234 0.81639887060804550156 0.55897907439518157435 0.47701835353751415036 0.75127179255725817786 0.77877303477624382211 0.76803849279514091464 0.76803848752523073973 0.77877303986122869972 0.75127178734402888516 0.47701835133978065517 0.42431728321671968729 0.69978322226928613148 0.74322518250224323122 0.73850191188372649176 0.73850193568481581341 0.74322516603914179356 0.69978323518072071963 0.42431728366719179135 0.39438177216047648477 0.66460167814421122756 0.71656955994403626065 0.71665100636973222414 0.71665102292956361918 0.7165695491280994478 0.66460168660523899486 0.39438177218246772693 0.37892312872654926315 0.64320936510470461123 0.70000595356103234579 0.70385515222748606945 0.70385520604190554561 0.7000059119916069994 0.64320939505947072323 0.37892311942721851326 0.99091512471528953032 1.0333704405850459018 1.0217795992302090013 1.0199696799990287666 1.0199697251965984535 1.0217795622112788578 1.0333704657545719208 0.99091512194587272333 0.95423987526106524015 1.0989340762436712318 1.0751513703909472142 1.066570922239839847 1.0665708629271626329 1.0751514179813297378 1.0989340385817012447 0.95423988401152870509 0.88728055294488539229 1.1508982996068832794 1.1347279146844275743 1.1188899670191747582 1.118889994553109446 1.1347278889217349285 1.1508983194231336977 0.88728054395901034823 0.81639886382791748698 1.1786202226054696141 1.1837490806580588387 1.1646065555664495417 1.1646065633609701262 1.1837490784240709552 1.1786202329930215438 0.81639887061506444255 0.75127179254410614284 1.1824512751661135912 1.2155920283725041298 1.1978985791628022906 1.1978986033042604564 1.2155920103922421838 1.1824512908395339306 0.75127178734582733544 0.69978322238636936348 1.1741965403288159298 1.2368474151353576751 1.224869940827512993 1.2248699861534491085 1.2368473853714267996 1.1741965764106445658 0.69978323521146168495 0.66460167823535154508 1.1574909212880444276 1.2411150027672259721 1.2354231098290386903 1.2354231493597538361 1.2411149740723979029 1.1574909422398349523 0.66460168662519081284 0.64320936531155337157 1.1469733361801188742 1.2504587741384654009 1.2530967710342946209 1.2530967579725338368 1.2504587997341900518 1.1469733331148459499 0.6432093951083891481 0.97965256628907837477 1.0217795992364093749 1.0102283072907491945 1.0083505118647682064 1.0083504447710305296 1.0102283620847423151 1.0217795622126542021 0.97965256946246515035 0.933635092316959736 1.0751513704245514447 1.051419312481080004 1.0426921453032025333 1.0426922224852848142 1.0514192499964503114 1.07515141798950431 0.93363508035654230177 0.87657597430611511324 1.1347279145625122077 1.1176906695333987951 1.1017340131482007415 1.1017339776001777718 1.1176907025043989474 1.1347278888933458596 0.87657598496681998768 0.82445892402050191539 1.1837490808944610698 1.1864336096696397327 1.1668950966502387168 1.1668951077814067041 1.1864335951870863539 1.1837490784801614208 0.82445891376384328186 0.77877303485488491575 1.2155920281490335544 1.2453816269359050395 1.2266191634958512058 1.226619135875159472 1.2453816503586065956 1.2155920103385511322 0.7787730398875195581 0.74322518240879487106 1.2368474152748836214 1.2970564166325804223 1.2832733556062776437 1.2832733289050171077 1.2970564291777737509 1.2368473854097004061 0.74322516602819888032 0.71656956016323336556 1.2411150027698867326 1.3244845865583003697 1.3165850420321207892 1.3165849949074264202 1.3244846168549935239 1.2411149740913103301 0.7165695491891032054 0.70000595365370932299 1.2504587736130181597 1.3574711363318443524 1.3578320159376839893 1.3578320782729487171 1.3574710686484172673 1.2504587996332572342 0.70000591202429851556 0.97770064853844540487 1.0199696799730166852 1.0083505119076048295 1.0064752381137218595 1.0064753202558192058 1.0083504447803233184 1.0199697251899142447 0.97770064449699822795 0.92502143012086412988 1.0665709220957022563 1.0426921453813797758 1.0338256536711087907 1.0338255581155795237 1.0426922225030321734 1.0665708628925474333 0.92502144490552495881 0.86216491752526891457 1.1188899673945664759 1.1017340129080537281 1.0854711057660964002 1.0854711429080370344 1.101733977547157739 1.1188899946429502474 0.86216490556972236181 0.80965251863410347966 1.1646065549483766155 1.1668950970436759995 1.147085601671977928 1.1470855960067085633 1.1668951078840619218 1.1646065632245767851 0.80965252944848653538 0.76803849266331436496 1.1978985797857568674 1.226619163088171538 1.2077309968471996449 1.2077310317794289762 1.2266191357554088182 1.1978986034312306685 0.76803848749734782153 0.73850191213073423935 1.2248699405248166805 1.2832733562941713856 1.2693908087365108894 1.2693908560118010165 1.2832733290297644313 1.2248699860649991944 0.73850193575949063529 0.71665100655019042808 1.2354231101113777314 1.3165850422219715909 1.3085104504118318935 1.3085105187743359956 1.3165849949766916804 1.2354231494710992134 0.71665102300848493311 0.70385515316303104427 1.2530967731018940459 1.3578320149802292072 1.3577304760851200971 1.3577304286573617098 1.3578320781085484459 1.253096758531632382 0.70385520629825559791 0.977700644460071433 1.019969725236728797 1.008350444722770245 1.0064753202518466058 1.0064752381119943525 1.0083505118525517563 1.0199696800079642856 0.97770064850957894009 0.92502144486971904502 1.066570863120838375 1.0426922223812760127 1.0338255581674711259 1.0338256536832528543 1.0426921452788264766 1.0665709222846875281 0.92502143009778148297 0.86216490571877524296 1.1188899939440524189 1.1017339780182211495 1.0854711426159717735 1.085471105700609229 1.1017340132483908199 1.1188899668762637418 0.8621649176393978431 0.80965252900116235768 1.1646065643522194311 1.1668951068136015348 1.1470855966146336069 1.1470856018228685613 1.1668950964305631057 1.1646065558050462396 0.80965251831648887837 0.76803848775460570319 1.1978986024561741885 1.2266191368241028403 1.2077310313581444134 1.2077309967242590982 1.2266191636904297813 1.1978985789466667367 0.76803849285383352097 0.73850193543191089418 1.2248699867965311405 1.2832733277791545934 1.2693908566903575608 1.2693908088592356087 1.2832733553055135634 1.2248699409656977899 0.73850191184265201461 0.71665102269662428469 1.235423148769428936 1.3165849944115883829 1.3085105187576280272 1.3085104504301263706 1.31658504195060444 1.2354231097368324477 0.71665100635296685727 0.70385520480562602241 1.2530967547234952431 1.3578320797843872469 1.3577304277302089108 1.3577304759245985011 1.3578320163676707022 1.2530967703450852646 0.70385515197855885727 0.97965256950278190029 1.0217795621242053983 1.0102283621852961026 1.0083504447320241759 1.0083505118953486335 1.0102283073140649883 1.0217795992098259727 0.97965256630761754497 0.93363508038027842595 1.0751514177801408945 1.0514192501333239349 1.0426922223991159644 1.0426921453570976439 1.0514193125145907537 1.0751513703443766889 0.93363509231517405329 0.87657598484854493126 1.1347278895649888231 1.1176907019376862706 1.1017339779651973419 1.101734013008236035 1.117690669396383063 1.1347279148301463447 0.87657597424714006618 0.82445891412228611284 1.1837490772700640651 1.1864335963721106548 1.1668951069161148659 1.1668950968238562815 1.1864336099397994051 1.183749080381506058 0.82445892415271748721 0.77877303962587929309 1.2155920114697689183 1.2453816492895157797 1.226619136704205637 1.2266191632825944602 1.2453816266773596322 1.2155920286307322353 0.77877303473395009803 0.74322516650240599834 1.2368473843987872751 1.2970564306496874529 1.283273327903688088 1.2832733559931992495 1.2970564169836307222 1.2368474149269006457 0.74322518262730707939 0.7165695491716228549 1.2411149741566793736 1.3244846173109683374 1.3165849944805170235 1.3165850421400910886 1.3244845866913503851 1.2411150028065520701 0.71656955996895910221 0.70000591305692982935 1.2504588033543706516 1.3574710667871989767 1.3578320796198142251 1.3578320154100067541 1.3574711359303859304 1.2504587750111257893 0.70000595383662589377 0.99091512189529662447 1.0333704658473190641 1.0217795621256071659 1.0199697252300727879 1.0199696799819801818 1.0217795992160521035 1.0333704406070229886 0.99091512470023024317 0.95423988398591641502 1.0989340388059412046 1.07515141778826262 1.0665708630863925954 1.0665709221407211338 1.0751513703779285169 1.0989340762962971354 0.95423987526014186766 0.88728054408572454292 1.1508983187125902958 1.1347278895365155993 1.1188899940335124139 1.1188899672512653272 1.1347279147081450468 1.150898299434711447 0.88728055298180730226 0.81639887028964208682 1.1786202340550833156 1.1837490773262508981 1.1646065642153549113 1.1646065551864928089 1.183749080618007099 1.1786202228518791735 0.81639886374093639798 0.75127178752872647571 1.1824512897405978773 1.2155920114162825918 1.1978986025832427664 1.1978985795696233119 1.2155920284074481774 1.1824512749237012788 0.75127179261607068828 0.69978323498051286933 1.1741965768980162643 1.2368473844373568671 1.2248699867087848858 1.2248699406635457088 1.2368474150666921574 1.1741965404687935148 0.6997832222380635514 0.66460168670615693554 1.1574909415413674463 1.2411149741761589027 1.2354231488821476592 1.2354231100190675718 1.2411150028097530651 1.1574909211329316161 0.66460167817953219593 0.64320939453900805027 1.1469733288983008368 1.2504588032541894549 1.2530967552833811585 1.2530967724131900631 1.2504587744864557042 1.1469733352045241581 0.64320936501091063864 0.94834389040686573047 0.99091512189599117999 0.97965256950056356366 0.9777006444651047401 0.97770064853096239066 0.97965256629805197441 0.99091512470351184039 0.94834388947222025834 0.82652188560585060362 0.95423988398491310647 0.93363508038234699349 0.92502144487331972034 0.92502143011327730981 0.93363509232302011043 0.9542398752548394425 0.82652188387563563232 0.67677105586666641557 0.88728054408502810002 0.87657598485709065095 0.86216490569989900905 0.86216491755578805734 0.87657597427901812193 0.88728055297381758226 0.67677105740029197545 0.5589790744551924595 0.81639887029682700614 0.82445891411655713998 0.80965252906178020176 0.8096525185492959853 0.8244589241077230346 0.81639886375853776279 0.5589790737383731889 0.47701835125268737814 0.75127178753064483008 0.77877303965314625955 0.76803848772829474978 0.76803849272354318689 0.77877303481355009129 0.75127179260303500463 0.47701835352940197277 0.42431728395469364701 0.69978323501134809259 0.7432251664924826029 0.73850193550906029216 0.73850191209208981835 0.74322518253486169471 0.69978322235524081929 0.42431728329781520648 0.39438177267211182997 0.66460168672621655617 0.71656954923346327657 0.71665102277758419014 0.71665100653542035403 0.71656956018899364835 0.66460167827078187042 0.39438177229126503143 0.37892311988601917738 0.64320939458808445988 0.70000591309032644816 0.70385520506334187107 0.70385515291545419636 0.70000595393002162936 0.64320936521791760576 0.37892312886162887731 
        </DataArray>
      </CellData>
      <Points>
        <DataArray Name="m" NumberOfComponents="3" type="Float32" format="ascii">
0 0 0 0.125 0 0 0.25 0 0 0.375 0 0 0.5 0 0 0.625 0 0 0.75 0 0 0.875 0 0 1 0 0 0 0.125 0 0.125 0.125 0 0.25 0.125 0 0.375 0.125 0 0.5 0.125 0 0.625 0.125 0 0.75 0.125 0 0.875 0.125 0 1 0.125 0 0 0.25 0 0.125 0.25 0 0.25 0.25 0 0.375 0.25 0 0.5 0.25 0 0.625 0.25 0 0.75 0.25 0 0.875 0.25 0 1 0.25 0 0 0.375 0 0.125 0.375 0 0.25 0.375 0 0.375 0.375 0 0.5 0.375 0 0.625 0.375 0 0.75 0.375 0 0.875 0.375 0 1 0.375 0 0 0.5 0 0.125 0.5 0 0.25 0.5 0 0.375 0.5 0 0.5 0.5 0 0.625 0.5 0 0.75 0.5 0 0.875 0.5 0 1 0.5 0 0 0.625 0 0.125 0.625 0 0.25 0.625 0 0.375 0.625 0 0.5 0.625 0 0.625 0.625 0 0.75 0.625 0 0.875 0.625 0 1 0.625 0 0 0.75 0 0.125 0.75 0 0.25 0.75 0 0.375 0.75 0 0.5 0.75 0 0.625 0.75 0 0.75 0.75 0 0.875 0.75 0 1 0.75 0 0 0.875 0 0.125 0.875 0 0.25 0.875 0 0.375 0.875 0 0.5 0.875 0 0.625 0.875 0 0.75 0.875 0 0.875 0.875 0 1 0.875 0 0 1 0 0.125 1 0 0.25 1 0 0.375 1 0 0.5 1 0 0.625 1 0 0.75 1 0 0.875 1 0 1 1 0 0 0 0.125 0.125 0 0.125 0.25 0 0.125 0.375 0 0.125 0.5 0 0.125 0.625 0 0.125 0.75 0 0.125 0.875 0 0.125 1 0 0.125 0 0.125 0.125 0.125 0.125 0.125 0.25 0.125 0.125 0.375 0.125 0.125 0.5 0.125 0.125 0.625 0.125 0.125 0.75 0.125 0.125 0.875 0.125 0.125 1 0.125 0.125 0 0.25 0.125 0.125 0.25 0.125 0.25 0.25 0.125 0.375 0.25 0.125 0.5 0.25 0.125 0.625 0.25 0.125 0.75 0.25 0.125 0.875 0.25 0.125 1 0.25 0.125 0 0.375 0.125 0.125 0.375 0.125 0.25 0.375 0.125 0.375 0.375 0.125 0.5 0.375 0.125 0.625 0.375 0.125 0.75 0.375 0.125 0.875 0.375 0.125 1 0.375 0.125 0 0.5 0.125 0.125 0.5 0.125 0.25 0.5 0.125 0.375 0.5 0.125 0.5 0.5 0.125 0.625 0.5 0.125 0.75 0.5 0.125 0.875 0.5 0.125 1 0.5 0.125 0 0.625 0.125 0.125 0.625 0.125 0.25 0.625 0.125 0.375 0.625 0.125 0.5 0.625 0.125 0.625 0.625 0.125 0.75 0.625 0.125 0.875 0.625 0.125 1 0.625 0.125 0 0.75 0.125 0.125 0.75 0.125 0.25 0.75 0.125 0.375 0.75 0.125 0.5 0.75 0.125 0.625 0.75 0.125 0.75 0.75 0.125 0.875 0.75 0.125 1 0.75 0.125 0 0.875 0.125 0.125 0.875 0.125 0.25 0.875 0.125 0.375 0.875 0.125 0.5 0.875 0.125 0.625 0.875 0.125 0.75 0.875 0.125 0.875 0.875 0.125 1 0.875 0.125 0 1 0.125 0.125 1 0.125 0.25 1 0.125 0.375 1 0.125 0.5 1 0.125 0.625 1 0.125 0.75 1 0.125 0.875 1 0.125 1 1 0.125 0 0 0.25 0.125 0 0.25 0.25 0 0.25 0.375 0 0.25 0.5 0 0.25 0.625 0 0.25 0.75 0 0.25 0.875 0 0.25 1 0 0.25 0 0.125 0.25 0.125 0.125 0.25 0.25 0.125 0.25 0.375 0.125 0.25 0.5 0.125 0.25 0.625 0.125 0.25 0.75 0.125 0.25 0.875 0.125 0.25 1 0.125 0.25 0 0.25 0.25 0.125 0.25 0.25 0.25 0.25 0.25 0.375 0.25 0.25 0.5 0.25 0.25 0.625 0.25 0.25 0.75 0.25 0.25 0.875 0.25 0.25 1 0.25 0.25 0 0.375 0.25 0.125 0.375 0.25 0.25 0.375 0.25 0.375 0.375 0.25 0.5 0.375 0.25 0.625 0.375 0.25 0.75 0.375 0.25 0.875 0.375 0.25 1 0.375 0.25 0 0.5 0.25 0.125 0.5 0.25 0.25 0.5 0.25 0.375 0.5 0.25 0.5 0.5 0.25 0.625 0.5 0.25 0.75 0.5 0.25 0.875 0.5 0.25 1 0.5 0.25 0 0.625 0.25 0.125 0.625 0.25 0.25 0.625 0.25 0.375 0.625 0.25 0.5 0.625 0.25 0.625 0.625 0.25 0.75 0.625 0.25 0.875 0.625 0.25 1 0.625 0.25 0 0.75 0.25 0.125 0.75 0.25 0.25 0.75 0.25 0.375 0.75 0.25 0.5 0.75 0.25 0.625 0.75 0.25 0.75 0.75 0.25 0.875 0.75 0.25 1 0.75 0.25 0 0.875 0.25 0.125 0.875 0.25 0.25 0.875 0.25 0.375 0.875 0.25 0.5 0.875 0.25 0.625 0.875 0.25 0.75 0.875 0.25 0.875 0.875 0.25 1 0.875 0.25 0 1 0.25 0.125 1 0.25 0.25 1 0.25 0.375 1 0.25 0.5 1 0.25 0.625 1 0.25 0.75 1 0.25 0.875 1 0.25 1 1 0.25 0 0 0.375 0.125 0 0.375 0.25 0 0.375 0.375 0 0.375 0.5 0 0.375 0.625 0 0.375 0.75 0 0.375 0.875 0 0.375 1 0 0.375 0 0.125 0.375 0.125 0.125 0.375 0.25 0.125 0.375 0.375 0.125 0.375 0.5 0.125 0.375 0.625 0.125 0.375 0.75 0.125 0.375 0.875 0.125 0.375 1 0.125 0.375 0 0.25 0.375 0.125 0.25 0.375 0.25 0.25 0.375 0.375 0.25 0.375 0.5 0.25 0.375 0.625 0.25 0.375 0.75 0.25 0.375 0.875 0.25 0.375 1 0.25 0.375 0 0.375 0.375 0.125 0.375 0.375 0.25 0.375 0.375 0.375 0.375 0.375 0.5 0.375 0.375 0.625 0.375 0.375 0.75 0.375 0.375 0.875 0.375 0.375 1 0.375 0.375 0 0.5 0.375 0.125 0.5 0.375 0.25 0.5 0.375 0.375 0.5 0.375 0.5 0.5 0.375 0.625 0.5 0.375 0.75 0.5 0.375 0.875 0.5 0.375 1 0.5 0.375 0 0.625 0.375 0.125 0.625 0.375 0.25 0.625 0.375 0.375 0.625 0.375 0.5 0.625 0.375 0.625 0.625 0.375 0.75 0.625 0.375 0.875 0.625 0.375 1 0.625 0.375 0 0.75 0.375 0.125 0.75 0.375 0.25 0.75 0.375 0.375 0.75 0.375 0.5 0.75 0.375 0.625 0.75 0.375 0.75 0.75 0.375 0.875 0.75 0.375 1 0.75 0.375 0 0.875 0.375 0.125 0.875 0.375 0.25 0.875 0.375 0.375 0.875 0.375 0.5 0.875 0.375 0.625 0.875 0.375 0.75 0.875 0.375 0.875 0.875 0.375 1 0.875 0.375 0 1 0.375 0.125 1 0.375 0.25 1 0.375 0.375 1 0.375 0.5 1 0.375 0.625 1 0.375 0.75 1 0.375 0.875 1 0.375 1 1 0.375 0 0 0.5 0.125 0 0.5 0.25 0 0.5 0.375 0 0.5 0.5 0 0.5 0.625 0 0.5 0.75 0 0.5 0.875 0 0.5 1 0 0.5 0 0.125 0.5 0.125 0.125 0.5 0.25 0.125 0.5 0.375 0.125 0.5 0.5 0.125 0.5 0.625 0.125 0.5 0.75 0.125 0.5 0.875 0.125 0.5 1 0.125 0.5 0 0.25 0.5 0.125 0.25 0.5 0.25 0.25 0.5 0.375 0.25 0.5 0.5 0.25 0.5 0.625 0.25 0.5 0.75 0.25 0.5 0.875 0.25 0.5 1 0.25 0.5 0 0.375 0.5 0.125 0.375 0.5 0.25 0.375 0.5 0.375 0.375 0.5 0.5 0.375 0.5 0.625 0.375 0.5 0.75 0.375 0.5 0.875 0.375 0.5 1 0.375 0.5 0 0.5 0.5 0.125 0.5 0.5 0.25 0.5 0.5 0.375 0.5 0.5 0.5 0.5 0.5 0.625 0.5 0.5 0.75 0.5 0.5 0.875 0.5 0.5 1 0.5 0.5 0 0.625 0.5 0.125 0.625 0.5 0.25 0.625 0.5 0.375 0.625 0.5 0.5 0.625 0.5 0.625 0.625 0.5 0.75 0.625 0.5 0.875 0.625 0.5 1 0.625 0.5 0 0.75 0.5 0.125 0.75 0.5 0.25 0.75 0.5 0.375 0.75 0.5 0.5 0.75 0.5 0.625 0.75 0.5 0.75 0.75 0.5 0.875 0.75 0.5 1 0.75 0.5 0 0.875 0.5 0.125 0.875 0.5 0.25 0.875 0.5 0.375 0.875 0.5 0.5 0.875 0.5 0.625 0.875 0.5 0.75 0.875 0.5 0.875 0.875 0.5 1 0.875 0.5 0 1 0.5 0.125 1 0.5 0.25 1 0.5 0.375 1 0.5 0.5 1 0.5 0.625 1 0.5 0.75 1 0.5 0.875 1 0.5 1 1 0.5 0 0 0.625 0.125 0 0.625 0.25 0 0.625 0.375 0 0.625 0.5 0 0.625 0.625 0 0.625 0.75 0 0.625 0.875 0 0.625 1 0 0.625 0 0.125 0.625 0.125 0.125 0.625 0.25 0.125 0.625 0.375 0.125 0.625 0.5 0.125 0.625 0.625 0.125 0.625 0.75 0.125 0.625 0.875 0.125 0.625 1 0.125 0.625 0 0.25 0.625 0.125 0.25 0.625 0.25 0.25 0.625 0.375 0.25 0.625 0.5 0.25 0.625 0.625 0.25 0.625 0.75 0.25 0.625 0.875 0.25 0.625 1 0.25 0.625 0 0.375 0.625 0.125 0.375 0.625 0.25 0.375 0.625 0.375 0.375 0.625 0.5 0.375 0.625 0.625 0.375 0.625 0.75 0.375 0.625 0.875 0.375 0.625 1 0.375 0.625 0 0.5 0.625 0.125 0.5 0.625 0.25 0.5 0.625 0.375 0.5 0.625 0.5 0.5 0.625 0.625 0.5 0.625 0.75 0.5 0.625 0.875 0.5 0.625 1 0.5 0.625 0 0.625 0.625 0.125 0.625 0.625 0.25 0.625 0.625 0.375 0.625 0.625 0.5 0.625 0.625 0.625 0.625 0.625 0.75 0.625 0.625 0.875 0.625 0.625 1 0.625 0.625 0 0.75 0.625 0.125 0.75 0.625 0.25 0.75 0.625 0.375 0.75 0.625 0.5 0.75 0.625 0.625 0.75 0.625 0.75 0.75 0.625 0.875 0.75 0.625 1 0.75 0.625 0 0.875 0.625 0.125 0.875 0.625 0.25 0.875 0.625 0.375 0.875 0.625 0.5 0.875 0.625 0.625 0.875 0.625 0.75 0.875 0.625 0.875 0.875 0.625 1 0.875 0.625 0 1 0.625 0.125 1 0.625 0.25 1 0.625 0.375 1 0.625 0.5 1 0.625 0.625 1 0.625 0.75 1 0.625 0.875 1 0.625 1 1 0.625 0 0 0.75 0.125 0 0.75 0.25 0 0.75 0.375 0 0.75 0.5 0 0.75 0.625 0 0.75 0.75 0 0.75 0.875 0 0.75 1 0 0.75 0 0.125 0.75 0.125 0.125 0.75 0.25 0.125 0.75 0.375 0.125 0.75 0.5 0.125 0.75 0.625 0.125 0.75 0.75 0.125 0.75 0.875 0.125 0.75 1 0.125 0.75 0 0.25 0.75 0.125 0.25 0.75 0.25 0.25 0.75 0.375 0.25 0.75 0.5 0.25 0.75 0.625 0.25 0.75 0.75 0.25 0.75 0.875 0.25 0.75 1 0.25 0.75 0 0.375 0.75 0.125 0.375 0.75 0.25 0.375 0.75 0.375 0.375 0.75 0.5 0.375 0.75 0.625 0.375 0.75 0.75 0.375 0.75 0.875 0.375 0.75 1 0.375 0.75 0 0.5 0.75 0.125 0.5 0.75 0.25 0.5 0.75 0.375 0.5 0.75 0.5 0.5 0.75 0.625 0.5 0.75 0.75 0.5 0.75 0.875 0.5 0.75 1 0.5 0.75 0 0.625 0.75 0.125 0.625 0.75 0.25 0.625 0.75 0.375 0.625 0.75 0.5 0.625 0.75 0.625 0.625 0.75 0.75 0.625 0.75 0.875 0.625 0.75 1 0.625 0.75 0 0.75 0.75 0.125 0.75 0.75 0.25 0.75 0.75 0.375 0.75 0.75 0.5 0.75 0.75 0.625 0.75 0.75 0.75 0.75 0.75 0.875 0.75 0.75 1 0.75 0.75 0 0.875 0.75 0.125 0.875 0.75 0.25 0.875 0.75 0.375 0.875 0.75 0.5 0.875 0.75 0.625 0.875 0.75 0.75 0.875 0.75 0.875 0.875 0.75 1 0.875 0.75 0 1 0.75 0.125 1 0.75 0.25 1 0.75 0.375 1 0.75 0.5 1 0.75 0.625 1 0.75 0.75 1 0.75 0.875 1 0.75 1 1 0.75 0 0 0.875 0.125 0 0.875 0.25 0 0.875 0.375 0 0.875 0.5 0 0.875 0.625 0 0.875 0.75 0 0.875 0.875 0 0.875 1 0 0.875 0 0.125 0.875 0.125 0.125 0.875 0.25 0.125 0.875 0.375 0.125 0.875 0.5 0.125 0.875 0.625 0.125 0.875 0.75 0.125 0.875 0.875 0.125 0.875 1 0.125 0.875 0 0.25 0.875 0.125 0.25 0.875 0.25 0.25 0.875 0.375 0.25 0.875 0.5 0.25 0.875 0.625 0.25 0.875 0.75 0.25 0.875 0.875 0.25 0.875 1 0.25 0.875 0 0.375 0.875 0.125 0.375 0.875 0.25 0.375 0.875 0.375 0.375 0.875 0.5 0.375 0.875 0.625 0.375 0.875 0.75 0.375 0.875 0.875 0.375 0.875 1 0.375 0.875 0 0.5 0.875 0.125 0.5 0.875 0.25 0.5 0.875 0.375 0.5 0.875 0.5 0.5 0.875 0.625 0.5 0.875 0.75 0.5 0.875 0.875 0.5 0.875 1 0.5 0.875 0 0.625 0.875 0.125 0.625 0.875 0.25 0.625 0.875 0.375 0.625 0.875 0.5 0.625 0.875 0.625 0.625 0.875 0.75 0.625 0.875 0.875 0.625 0.875 1 0.625 0.875 0 0.75 0.875 0.125 0.75 0.875 0.25 0.75 0.875 0.375 0.75 0.875 0.5 0.75 0.875 0.625 0.75 0.875 0.75 0.75 0.875 0.875 0.75 0.875 1 0.75 0.875 0 0.875 0.875 0.125 0.875 0.875 0.25 0.875 0.875 0.375 0.875 0.875 0.5 0.875 0.875 0.625 0.875 0.875 0.75 0.875 0.875 0.875 0.875 0.875 1 0.875 0.875 0 1 0.875 0.125 1 0.875 0.25 1 0.875 0.375 1 0.875 0.5 1 0.875 0.625 1 0.875 0.75 1 0.875 0.875 1 0.875 1 1 0.875 0 0 1 0.125 0 1 0.25 0 1 0.375 0 1 0.5 0 1 0.625 0 1 0.75 0 1 0.875 0 1 1 0 1 0 0.125 1 0.125 0.125 1 0.25 0.125 1 0.375 0.125 1 0.5 0.125 1 0.625 0.125 1 0.75 0.125 1 0.875 0.125 1 1 0.125 1 0 0.25 1 0.125 0.25 1 0.25 0.25 1 0.375 0.25 1 0.5 0.25 1 0.625 0.25 1 0.75 0.25 1 0.875 0.25 1 1 0.25 1 0 0.375 1 0.125 0.375 1 0.25 0.375 1 0.375 0.375 1 0.5 0.375 1 0.625 0.375 1 0.75 0.375 1 0.875 0.375 1 1 0.375 1 0 0.5 1 0.125 0.5 1 0.25 0.5 1 0.375 0.5 1 0.5 0.5 1 0.625 0.5 1 0.75 0.5 1 0.875 0.5 1 1 0.5 1 0 0.625 1 0.125 0.625 1 0.25 0.625 1 0.375 0.625 1 0.5 0.625 1 0.625 0.625 1 0.75 0.625 1 0.875 0.625 1 1 0.625 1 0 0.75 1 0.125 0.75 1 0.25 0.75 1 0.375 0.75 1 0.5 0.75 1 0.625 0.75 1 0.75 0.75 1 0.875 0.75 1 1 0.75 1 0 0.875 1 0.125 0.875 1 0.25 0.875 1 0.375 0.875 1 0.5 0.875 1 0.625 0.875 1 0.75 0.875 1 0.875 0.875 1 1 0.875 1 0 1 1 0.125 1 1 0.25 1 1 0.375 1 1 0.5 1 1 0.625 1 1 0.75 1 1 0.875 1 1 1 1 1         </DataArray>
      </Points>
    </Piece>
  </StructuredGrid>
</VTKFile>
