<?xml version="1.0"?>
<VTKFile type="StructuredGrid" version="0.1" byte_order="LittleEndian">
  <StructuredGrid WholeExtent="0 8 0 8 0 8">
    <Piece Extent="0 8 0 8 0 8">
      <PointData>
      </PointData>
      <CellData>
        <DataArray Name="vy" NumberOfComponents="1" type="Float32" format="ascii">
0.90259624474198252297 0.96095791561708754358 0.9522303726063214846 0.95146226393472832505 0.9514622644828767406 0.95223037217372152874 0.96095791595495949622 0.90259624494862689126 0.82520641325495225349 0.95217790537358104608 0.93246377971344118762 0.92451052526501742435 0.92451052413071532765 0.93246378067216018071 0.95217790479081465538 0.82520641364461733147 0.68229734464340840994 0.88661998688183096817 0.88050195364222694216 0.86683605814250819233 0.86683605935232155293 0.88050195282668475283 0.88661998733009816931 0.68229734460037994026 0.56158493258442654383 0.8109858263755861385 0.825227233843250918 0.81091778871136588336 0.81091778730457608759 0.82522723480284854158 0.81098582574343958118 0.56158493225243177882 0.48505979711488328432 0.75316997638489702194 0.78638024334449274644 0.77574592324219893147 0.7757459224205296433 0.78638024440454223907 0.75316997567002641478 0.48505979763012602168 0.42171122200207905584 0.69160144438070381145 0.73964881179773489528 0.73493955773770658357 0.73493955573666669423 0.73964881267435389489 0.69160144375138454809 0.42171122156586449137 0.40747369545320039075 0.67662635058717957026 0.7318484660039550338 0.73177272876307797311 0.73177271976106605944 0.73184847309778089386 0.67662634641452001905 0.40747369928968119046 0.35260568425666488634 0.61231405084922796433 0.672683966584365578 0.67752928113922017417 0.67752929956630514319 0.67268395008654735534 0.61231406286647271919 0.35260568488019516931 0.96095791561807530901 1.0235626609782688679 1.01438952572140062 1.0139217119239110065 1.0139217095125172552 1.0143895280685286675 1.0235626593873130563 0.96095791595518031958 0.95217790537366941983 1.1009003390997709193 1.0776377638249681201 1.0698014702042222268 1.0698014720846618086 1.0776377620340922281 1.1009003391769061064 0.95217790479082387023 0.88661998688219734177 1.1468081902136673111 1.1350009958743569882 1.1198798566031233914 1.119879845027999421 1.1350010042950839928 1.1468081859806751321 0.8866199873302026413 0.81098582637409533103 1.1648736936786860952 1.1765892551743712957 1.1581092870453713051 1.1581092911617603125 1.176589252427570953 1.1648736952900373698 0.81098582574320154936 0.75316997638740768028 1.175079159990290778 1.2148698347819490984 1.1976879975419856272 1.1976880067901529703 1.214869827645430167 1.175079165440366058 0.7531699756707398441 0.69160144437602910639 1.1559812476929369751 1.2249577913392371009 1.213689605078629663 1.2136895931232996038 1.224957801577494898 1.1559812430782003823 0.6916014437505174639 0.67662635058260389709 1.1637525881436567854 1.252184043692808002 1.2468813010123511731 1.2468813338977662308 1.2521840147023404199 1.1637526112728695526 0.6766263464136307304 0.61231405085707535374 1.1099057209534672896 1.2192792661705937896 1.2234155635108296956 1.2234155089620528667 1.2192793095985918761 1.1099056870994656876 0.61231406286831324692 0.95223037260174614449 1.0143895257294206491 1.0052317397741667993 1.0046980593346714894 1.0046980631461150946 1.0052317361086857694 1.0143895280703212336 0.95223037217270112276 0.93246377971380411953 1.0776377638224083899 1.0545737964174715096 1.0465844616832225 1.0465844558645294171 1.0545738014670380522 1.0776377620335473306 0.93246378067224533481 0.88050195364108041485 1.1350009958771349883 1.1226393504407448098 1.1075021803986107027 1.1075022004744792259 1.1226393356190658146 1.1350010042957401346 0.88050195282644860839 0.82522723384531071478 1.1765892551619880901 1.1861257785659742314 1.1674410191809660997 1.1674410118971303429 1.186125784108181147 1.1765892524247822948 0.82522723480336612756 0.78638024333841805014 1.2148698347969484335 1.2515525044969402213 1.2334839819135761108 1.2334839680144649154 1.2515525157569553638 1.214869827648725753 0.78638024440337472853 0.7396488117986917965 1.2249577913410398811 1.2921446672741812023 1.2793028075909418373 1.2793028278691356281 1.2921446498633761824 1.2249578015778606055 0.7396488126748462788 0.73184846602638164992 1.2521840436389912732 1.341183922035576348 1.3338786919915364138 1.3338786531524480239 1.3411839555195719242 1.2521840146904641422 0.73184847310319101066 0.67268396655424678166 1.2192792663277980392 1.3339842184308450257 1.3362333303766602555 1.3362334090654315322 1.3339841517376291868 1.219279309634293762 0.67268395008034131966 0.95146226394454891384 1.0139217119024395153 1.0046980593514545088 1.0041740186150136527 1.0041740147595321631 1.004698063149900733 1.0139217095077581732 0.9514622644850909694 0.92451052526382881958 1.0698014702113498586 1.0465844616812893797 1.0384534622077445931 1.0384534690125395429 1.0465844558641312911 1.0698014720862760729 0.92451052413043366407 0.86683605814324038441 1.1198798566006409327 1.1075021803945310772 1.092067334807591994 1.0920673077353793001 1.1075022004734722536 1.1198798450273450555 0.86683605935246388352 0.81091778870609587671 1.1581092870706501952 1.1674410191704511774 1.1484784246005246278 1.1484784341098599469 1.1674410118944393844 1.1581092911670525236 0.8109177873033440731 0.77574592324622793083 1.1976879974957126418 1.2334839819515770465 1.2152288642665785012 1.2152288816232434954 1.2334839680224978231 1.197688006779533465 0.77574592242164885914 0.73493955773067420889 1.2136896050690191284 1.2793028075894343765 1.266304730107273846 1.2663047062866186199 1.2793028278686857657 1.2136895931214271016 0.73493955573571856377 0.73177272869932263877 1.2468813011253681022 1.3338786918911349488 1.3263430923842207676 1.326343136595048211 1.3338786531307322836 1.2468813339241944238 0.73177271974776114671 0.67752928118522159906 1.2234155630409899729 1.3362333307663145643 1.3380541327856583234 1.3380540385755284039 1.3362334091539209702 1.2234155088589222515 0.67752929957780338999 0.9514622644682054764 1.0139217095472188301 1.0046980631091435576 1.0041740147851752063 1.0041740186207603891 1.0046980593264378534 1.0139217119317054383 0.95146226393146304812 0.92451052413303758115 1.0698014720750770312 1.0465844558675629905 1.038453469010260255 1.0384534622072796317 1.0465844616839619086 1.0698014702021254596 0.92451052526552857103 0.8668360593521342583 1.1198798450306524099 1.107502200486849997 1.0920673077241314086 1.0920673348050478069 1.1075021804013160942 1.1198798566035836899 0.866836058142421928 0.81091778731240238276 1.1581092911233648035 1.1674410119259674978 1.1484784340962921334 1.1484784245971615402 1.1674410191869430964 1.1581092870364297909 0.81091778871304109888 0.7757459224130003328 1.1976880068617083985 1.2334839679484079777 1.2152288816572360819 1.2152288642735460389 1.2334839818981511161 1.1976879975576446569 0.77574592324057467518 0.73493955573614055954 1.2136895931271440841 1.2793028278759535077 1.266304706284055559 1.2663047301063226069 1.2793028075921968334 1.2136896050796297519 0.73493955773792107866 0.73177271984201619492 1.2468813337019539755 1.3338786533560382797 1.3263431364650362099 1.3263430923556833729 1.3338786920377532219 1.2468813009695525196 0.73177272878183718952 0.67752929948104689828 1.2234155096670895624 1.3362334082730542573 1.3380540390241506543 1.338054132887178671 1.336233330201162639 1.2234155636701711245 0.67752928112114696457 0.95223037218914097224 1.0143895280330310626 1.0052317361505205273 1.004698063112923867 1.0046980593432175421 1.0052317397835168755 1.014389525713460527 0.95223037260976883811 0.93246378066998347744 1.0776377620426742521 1.0545738014654626458 1.0465844558671648645 1.046584461682022793 1.0545737964172003931 1.0776377638268999082 0.93246377971297278453 0.88050195282860399537 1.1350010042901061968 1.1226393356108554933 1.107502200485874555 1.107502180397258007 1.1226393504389546862 1.1350009958733078275 0.88050195364267580533 0.82522723479204562747 1.176589252480397807 1.1861257840669139352 1.1674410119232816463 1.1674410191764501565 1.1861257785566348133 1.1765892551861529824 0.82522723384083118692 0.78638024441284415378 1.2148698275534000057 1.2515525158547022855 1.2334839679563807113 1.2334839819361298474 1.2515525045184512365 1.2148698347612774118 0.78638024334631284606 0.73964881266580662089 1.2249578015787803142 1.2921446498485702481 1.2793028278754341454 1.2793028075906358598 1.2921446672704259839 1.224957791339362112 0.73964881179575758807 0.73184847299607047599 1.2521840149110181617 1.3411839552536628517 1.3338786533343340857 1.3338786919373242235 1.341183921975914739 1.2521840437393316758 0.73184846598121167105 0.67268395015898407863 1.2192793087437414634 1.3339841527312044089 1.336233408361611863 1.3362333305908302705 1.3339842186535193491 1.2192792659797617727 0.67268396660072249382 0.96095791594280099979 1.0235626594156210789 1.0143895280348229626 1.0139217095424584159 1.013921711910233725 1.0143895257214796679 1.023562660984591588 0.96095791561436505468 0.95217790479407593551 1.1009003391661607019 1.0776377620421322412 1.0698014720766892971 1.0698014702092524253 1.077637763824340178 1.1009003390973561842 0.95217790537431301612 0.8866199873277434973 1.1468081859969669889 1.1350010042907658914 1.119879845030005594 1.1198798566011081146 1.1350009958760867157 1.1468081902173001829 0.88661998688132115376 0.81098582575557043306 1.1648736952363878405 1.1765892524776069283 1.1581092911286610114 1.1581092870617148982 1.176589255173770443 1.1648736936667671849 0.81098582637828586783 0.75316997566196963731 1.1750791655266854541 1.2148698275566887084 1.1976880068510744604 1.1976879975113638999 1.2148698347762809657 1.175079160009649959 0.7531699763830116412 0.6916014437553187344 1.1559812430785663118 1.2249578015791462438 1.2136895931252549286 1.2136896050700063387 1.2249577913411726637 1.1559812476929816061 0.69160144438135229272 0.67662634649841957302 1.1637526111140539253 1.2521840148991505437 1.2468813337283937148 1.2468813010825698928 1.2521840436855218304 1.1637525881079058276 0.67662635060555376132 0.61231406280874511872 1.1099056877433604029 1.2192793087794553397 1.2234155095640009137 1.2234155632003549385 1.2192792661369680207 1.1099057210970619813 0.61231405083588918981 0.90259624495395829324 0.96095791594302282235 0.95223037218811945603 0.95146226447042092644 0.95146226394128241566 0.95223037260519416414 0.96095791561535259806 0.90259624474317257103 0.82520641364415237007 0.95217790479408503934 0.93246378067006940871 0.92451052413275414121 0.92451052526433863399 0.93246377971333560541 0.95217790537440138987 0.82520641325485000195 0.68229734460230107018 0.88661998732784774724 0.88050195282836896116 0.86683605935227936445 0.86683605814315922711 0.88050195364152972211 0.88661998688168819349 0.68229734464382008063 0.56158493224988959014 0.81098582575533373351 0.82522723479256643309 0.81091778731117380996 0.81091778870777264654 0.82522723384289375925 0.81098582637679539342 0.56158493258378427981 0.48505979763444012631 0.7531699756626843989 0.78638024441167952983 0.77574592241410988969 0.7757459232446034525 0.78638024334024358986 0.75316997638552085625 0.4850597971156891397 0.42171122156667928405 0.69160144375444865261 0.73964881266629589618 0.73493955573518032764 0.73493955773089314487 0.73964881179671371214 0.69160144437667214756 0.42171122200199312458 0.40747369926115933891 0.67662634649752528837 0.73184847300147393145 0.73177271982871638922 0.7317727287180989526 0.73184846600363173685 0.67662635060097309214 0.40747369544647421558 0.35260568492313582034 0.61231406281058231578 0.67268395015277471227 0.67752929949256790465 0.67752928116717525686 0.67268396657059814636 0.61231405084373369263 0.35260568426591287761 
        </DataArray>
      </CellData>
      <Points>
        <DataArray Name="m" NumberOfComponents="3" type="Float32" format="ascii">
0 0 0 0.125 0 0 0.25 0 0 0.375 0 0 0.5 0 0 0.625 0 0 0.75 0 0 0.875 0 0 1 0 0 0 0.125 0 0.125 0.125 0 0.25 0.125 0 0.375 0.125 0 0.5 0.125 0 0.625 0.125 0 0.75 0.125 0 0.875 0.125 0 1 0.125 0 0 0.25 0 0.125 0.25 0 0.25 0.25 0 0.375 0.25 0 0.5 0.25 0 0.625 0.25 0 0.75 0.25 0 0.875 0.25 0 1 0.25 0 0 0.375 0 0.125 0.375 0 0.25 0.375 0 0.375 0.375 0 0.5 0.375 0 0.625 0.375 0 0.75 0.375 0 0.875 0.375 0 1 0.375 0 0 0.5 0 0.125 0.5 0 0.25 0.5 0 0.375 0.5 0 0.5 0.5 0 0.625 0.5 0 0.75 0.5 0 0.875 0.5 0 1 0.5 0 0 0.625 0 0.125 0.625 0 0.25 0.625 0 0.375 0.625 0 0.5 0.625 0 0.625 0.625 0 0.75 0.625 0 0.875 0.625 0 1 0.625 0 0 0.75 0 0.125 0.75 0 0.25 0.75 0 0.375 0.75 0 0.5 0.75 0 0.625 0.75 0 0.75 0.75 0 0.875 0.75 0 1 0.75 0 0 0.875 0 0.125 0.875 0 0.25 0.875 0 0.375 0.875 0 0.5 0.875 0 0.625 0.875 0 0.75 0.875 0 0.875 0.875 0 1 0.875 0 0 1 0 0.125 1 0 0.25 1 0 0.375 1 0 0.5 1 0 0.625 1 0 0.75 1 0 0.875 1 0 1 1 0 0 0 0.125 0.125 0 0.125 0.25 0 0.125 0.375 0 0.125 0.5 0 0.125 0.625 0 0.125 0.75 0 0.125 0.875 0 0.125 1 0 0.125 0 0.125 0.125 0.125 0.125 0.125 0.25 0.125 0.125 0.375 0.125 0.125 0.5 0.125 0.125 0.625 0.125 0.125 0.75 0.125 0.125 0.875 0.125 0.125 1 0.125 0.125 0 0.25 0.125 0.125 0.25 0.125 0.25 0.25 0.125 0.375 0.25 0.125 0.5 0.25 0.125 0.625 0.25 0.125 0.75 0.25 0.125 0.875 0.25 0.125 1 0.25 0.125 0 0.375 0.125 0.125 0.375 0.125 0.25 0.375 0.125 0.375 0.375 0.125 0.5 0.375 0.125 0.625 0.375 0.125 0.75 0.375 0.125 0.875 0.375 0.125 1 0.375 0.125 0 0.5 0.125 0.125 0.5 0.125 0.25 0.5 0.125 0.375 0.5 0.125 0.5 0.5 0.125 0.625 0.5 0.125 0.75 0.5 0.125 0.875 0.5 0.125 1 0.5 0.125 0 0.625 0.125 0.125 0.625 0.125 0.25 0.625 0.125 0.375 0.625 0.125 0.5 0.625 0.125 0.625 0.625 0.125 0.75 0.625 0.125 0.875 0.625 0.125 1 0.625 0.125 0 0.75 0.125 0.125 0.75 0.125 0.25 0.75 0.125 0.375 0.75 0.125 0.5 0.75 0.125 0.625 0.75 0.125 0.75 0.75 0.125 0.875 0.75 0.125 1 0.75 0.125 0 0.875 0.125 0.125 0.875 0.125 0.25 0.875 0.125 0.375 0.875 0.125 0.5 0.875 0.125 0.625 0.875 0.125 0.75 0.875 0.125 0.875 0.875 0.125 1 0.875 0.125 0 1 0.125 0.125 1 0.125 0.25 1 0.125 0.375 1 0.125 0.5 1 0.125 0.625 1 0.125 0.75 1 0.125 0.875 1 0.125 1 1 0.125 0 0 0.25 0.125 0 0.25 0.25 0 0.25 0.375 0 0.25 0.5 0 0.25 0.625 0 0.25 0.75 0 0.25 0.875 0 0.25 1 0 0.25 0 0.125 0.25 0.125 0.125 0.25 0.25 0.125 0.25 0.375 0.125 0.25 0.5 0.125 0.25 0.625 0.125 0.25 0.75 0.125 0.25 0.875 0.125 0.25 1 0.125 0.25 0 0.25 0.25 0.125 0.25 0.25 0.25 0.25 0.25 0.375 0.25 0.25 0.5 0.25 0.25 0.625 0.25 0.25 0.75 0.25 0.25 0.875 0.25 0.25 1 0.25 0.25 0 0.375 0.25 0.125 0.375 0.25 0.25 0.375 0.25 0.375 0.375 0.25 0.5 0.375 0.25 0.625 0.375 0.25 0.75 0.375 0.25 0.875 0.375 0.25 1 0.375 0.25 0 0.5 0.25 0.125 0.5 0.25 0.25 0.5 0.25 0.375 0.5 0.25 0.5 0.5 0.25 0.625 0.5 0.25 0.75 0.5 0.25 0.875 0.5 0.25 1 0.5 0.25 0 0.625 0.25 0.125 0.625 0.25 0.25 0.625 0.25 0.375 0.625 0.25 0.5 0.625 0.25 0.625 0.625 0.25 0.75 0.625 0.25 0.875 0.625 0.25 1 0.625 0.25 0 0.75 0.25 0.125 0.75 0.25 0.25 0.75 0.25 0.375 0.75 0.25 0.5 0.75 0.25 0.625 0.75 0.25 0.75 0.75 0.25 0.875 0.75 0.25 1 0.75 0.25 0 0.875 0.25 0.125 0.875 0.25 0.25 0.875 0.25 0.375 0.875 0.25 0.5 0.875 0.25 0.625 0.875 0.25 0.75 0.875 0.25 0.875 0.875 0.25 1 0.875 0.25 0 1 0.25 0.125 1 0.25 0.25 1 0.25 0.375 1 0.25 0.5 1 0.25 0.625 1 0.25 0.75 1 0.25 0.875 1 0.25 1 1 0.25 0 0 0.375 0.125 0 0.375 0.25 0 0.375 0.375 0 0.375 0.5 0 0.375 0.625 0 0.375 0.75 0 0.375 0.875 0 0.375 1 0 0.375 0 0.125 0.375 0.125 0.125 0.375 0.25 0.125 0.375 0.375 0.125 0.375 0.5 0.125 0.375 0.625 0.125 0.375 0.75 0.125 0.375 0.875 0.125 0.375 1 0.125 0.375 0 0.25 0.375 0.125 0.25 0.375 0.25 0.25 0.375 0.375 0.25 0.375 0.5 0.25 0.375 0.625 0.25 0.375 0.75 0.25 0.375 0.875 0.25 0.375 1 0.25 0.375 0 0.375 0.375 0.125 0.375 0.375 0.25 0.375 0.375 0.375 0.375 0.375 0.5 0.375 0.375 0.625 0.375 0.375 0.75 0.375 0.375 0.875 0.375 0.375 1 0.375 0.375 0 0.5 0.375 0.125 0.5 0.375 0.25 0.5 0.375 0.375 0.5 0.375 0.5 0.5 0.375 0.625 0.5 0.375 0.75 0.5 0.375 0.875 0.5 0.375 1 0.5 0.375 0 0.625 0.375 0.125 0.625 0.375 0.25 0.625 0.375 0.375 0.625 0.375 0.5 0.625 0.375 0.625 0.625 0.375 0.75 0.625 0.375 0.875 0.625 0.375 1 0.625 0.375 0 0.75 0.375 0.125 0.75 0.375 0.25 0.75 0.375 0.375 0.75 0.375 0.5 0.75 0.375 0.625 0.75 0.375 0.75 0.75 0.375 0.875 0.75 0.375 1 0.75 0.375 0 0.875 0.375 0.125 0.875 0.375 0.25 0.875 0.375 0.375 0.875 0.375 0.5 0.875 0.375 0.625 0.875 0.375 0.75 0.875 0.375 0.875 0.875 0.375 1 0.875 0.375 0 1 0.375 0.125 1 0.375 0.25 1 0.375 0.375 1 0.375 0.5 1 0.375 0.625 1 0.375 0.75 1 0.375 0.875 1 0.375 1 1 0.375 0 0 0.5 0.125 0 0.5 0.25 0 0.5 0.375 0 0.5 0.5 0 0.5 0.625 0 0.5 0.75 0 0.5 0.875 0 0.5 1 0 0.5 0 0.125 0.5 0.125 0.125 0.5 0.25 0.125 0.5 0.375 0.125 0.5 0.5 0.125 0.5 0.625 0.125 0.5 0.75 0.125 0.5 0.875 0.125 0.5 1 0.125 0.5 0 0.25 0.5 0.125 0.25 0.5 0.25 0.25 0.5 0.375 0.25 0.5 0.5 0.25 0.5 0.625 0.25 0.5 0.75 0.25 0.5 0.875 0.25 0.5 1 0.25 0.5 0 0.375 0.5 0.125 0.375 0.5 0.25 0.375 0.5 0.375 0.375 0.5 0.5 0.375 0.5 0.625 0.375 0.5 0.75 0.375 0.5 0.875 0.375 0.5 1 0.375 0.5 0 0.5 0.5 0.125 0.5 0.5 0.25 0.5 0.5 0.375 0.5 0.5 0.5 0.5 0.5 0.625 0.5 0.5 0.75 0.5 0.5 0.875 0.5 0.5 1 0.5 0.5 0 0.625 0.5 0.125 0.625 0.5 0.25 0.625 0.5 0.375 0.625 0.5 0.5 0.625 0.5 0.625 0.625 0.5 0.75 0.625 0.5 0.875 0.625 0.5 1 0.625 0.5 0 0.75 0.5 0.125 0.75 0.5 0.25 0.75 0.5 0.375 0.75 0.5 0.5 0.75 0.5 0.625 0.75 0.5 0.75 0.75 0.5 0.875 0.75 0.5 1 0.75 0.5 0 0.875 0.5 0.125 0.875 0.5 0.25 0.875 0.5 0.375 0.875 0.5 0.5 0.875 0.5 0.625 0.875 0.5 0.75 0.875 0.5 0.875 0.875 0.5 1 0.875 0.5 0 1 0.5 0.125 1 0.5 0.25 1 0.5 0.375 1 0.5 0.5 1 0.5 0.625 1 0.5 0.75 1 0.5 0.875 1 0.5 1 1 0.5 0 0 0.625 0.125 0 0.625 0.25 0 0.625 0.375 0 0.625 0.5 0 0.625 0.625 0 0.625 0.75 0 0.625 0.875 0 0.625 1 0 0.625 0 0.125 0.625 0.125 0.125 0.625 0.25 0.125 0.625 0.375 0.125 0.625 0.5 0.125 0.625 0.625 0.125 0.625 0.75 0.125 0.625 0.875 0.125 0.625 1 0.125 0.625 0 0.25 0.625 0.125 0.25 0.625 0.25 0.25 0.625 0.375 0.25 0.625 0.5 0.25 0.625 0.625 0.25 0.625 0.75 0.25 0.625 0.875 0.25 0.625 1 0.25 0.625 0 0.375 0.625 0.125 0.375 0.625 0.25 0.375 0.625 0.375 0.375 0.625 0.5 0.375 0.625 0.625 0.375 0.625 0.75 0.375 0.625 0.875 0.375 0.625 1 0.375 0.625 0 0.5 0.625 0.125 0.5 0.625 0.25 0.5 0.625 0.375 0.5 0.625 0.5 0.5 0.625 0.625 0.5 0.625 0.75 0.5 0.625 0.875 0.5 0.625 1 0.5 0.625 0 0.625 0.625 0.125 0.625 0.625 0.25 0.625 0.625 0.375 0.625 0.625 0.5 0.625 0.625 0.625 0.625 0.625 0.75 0.625 0.625 0.875 0.625 0.625 1 0.625 0.625 0 0.75 0.625 0.125 0.75 0.625 0.25 0.75 0.625 0.375 0.75 0.625 0.5 0.75 0.625 0.625 0.75 0.625 0.75 0.75 0.625 0.875 0.75 0.625 1 0.75 0.625 0 0.875 0.625 0.125 0.875 0.625 0.25 0.875 0.625 0.375 0.875 0.625 0.5 0.875 0.625 0.625 0.875 0.625 0.75 0.875 0.625 0.875 0.875 0.625 1 0.875 0.625 0 1 0.625 0.125 1 0.625 0.25 1 0.625 0.375 1 0.625 0.5 1 0.625 0.625 1 0.625 0.75 1 0.625 0.875 1 0.625 1 1 0.625 0 0 0.75 0.125 0 0.75 0.25 0 0.75 0.375 0 0.75 0.5 0 0.75 0.625 0 0.75 0.75 0 0.75 0.875 0 0.75 1 0 0.75 0 0.125 0.75 0.125 0.125 0.75 0.25 0.125 0.75 0.375 0.125 0.75 0.5 0.125 0.75 0.625 0.125 0.75 0.75 0.125 0.75 0.875 0.125 0.75 1 0.125 0.75 0 0.25 0.75 0.125 0.25 0.75 0.25 0.25 0.75 0.375 0.25 0.75 0.5 0.25 0.75 0.625 0.25 0.75 0.75 0.25 0.75 0.875 0.25 0.75 1 0.25 0.75 0 0.375 0.75 0.125 0.375 0.75 0.25 0.375 0.75 0.375 0.375 0.75 0.5 0.375 0.75 0.625 0.375 0.75 0.75 0.375 0.75 0.875 0.375 0.75 1 0.375 0.75 0 0.5 0.75 0.125 0.5 0.75 0.25 0.5 0.75 0.375 0.5 0.75 0.5 0.5 0.75 0.625 0.5 0.75 0.75 0.5 0.75 0.875 0.5 0.75 1 0.5 0.75 0 0.625 0.75 0.125 0.625 0.75 0.25 0.625 0.75 0.375 0.625 0.75 0.5 0.625 0.75 0.625 0.625 0.75 0.75 0.625 0.75 0.875 0.625 0.75 1 0.625 0.75 0 0.75 0.75 0.125 0.75 0.75 0.25 0.75 0.75 0.375 0.75 0.75 0.5 0.75 0.75 0.625 0.75 0.75 0.75 0.75 0.75 0.875 0.75 0.75 1 0.75 0.75 0 0.875 0.75 0.125 0.875 0.75 0.25 0.875 0.75 0.375 0.875 0.75 0.5 0.875 0.75 0.625 0.875 0.75 0.75 0.875 0.75 0.875 0.875 0.75 1 0.875 0.75 0 1 0.75 0.125 1 0.75 0.25 1 0.75 0.375 1 0.75 0.5 1 0.75 0.625 1 0.75 0.75 1 0.75 0.875 1 0.75 1 1 0.75 0 0 0.875 0.125 0 0.875 0.25 0 0.875 0.375 0 0.875 0.5 0 0.875 0.625 0 0.875 0.75 0 0.875 0.875 0 0.875 1 0 0.875 0 0.125 0.875 0.125 0.125 0.875 0.25 0.125 0.875 0.375 0.125 0.875 0.5 0.125 0.875 0.625 0.125 0.875 0.75 0.125 0.875 0.875 0.125 0.875 1 0.125 0.875 0 0.25 0.875 0.125 0.25 0.875 0.25 0.25 0.875 0.375 0.25 0.875 0.5 0.25 0.875 0.625 0.25 0.875 0.75 0.25 0.875 0.875 0.25 0.875 1 0.25 0.875 0 0.375 0.875 0.125 0.375 0.875 0.25 0.375 0.875 0.375 0.375 0.875 0.5 0.375 0.875 0.625 0.375 0.875 0.75 0.375 0.875 0.875 0.375 0.875 1 0.375 0.875 0 0.5 0.875 0.125 0.5 0.875 0.25 0.5 0.875 0.375 0.5 0.875 0.5 0.5 0.875 0.625 0.5 0.875 0.75 0.5 0.875 0.875 0.5 0.875 1 0.5 0.875 0 0.625 0.875 0.125 0.625 0.875 0.25 0.625 0.875 0.375 0.625 0.875 0.5 0.625 0.875 0.625 0.625 0.875 0.75 0.625 0.875 0.875 0.625 0.875 1 0.625 0.875 0 0.75 0.875 0.125 0.75 0.875 0.25 0.75 0.875 0.375 0.75 0.875 0.5 0.75 0.875 0.625 0.75 0.875 0.75 0.75 0.875 0.875 0.75 0.875 1 0.75 0.875 0 0.875 0.875 0.125 0.875 0.875 0.25 0.875 0.875 0.375 0.875 0.875 0.5 0.875 0.875 0.625 0.875 0.875 0.75 0.875 0.875 0.875 0.875 0.875 1 0.875 0.875 0 1 0.875 0.125 1 0.875 0.25 1 0.875 0.375 1 0.875 0.5 1 0.875 0.625 1 0.875 0.75 1 0.875 0.875 1 0.875 1 1 0.875 0 0 1 0.125 0 1 0.25 0 1 0.375 0 1 0.5 0 1 0.625 0 1 0.75 0 1 0.875 0 1 1 0 1 0 0.125 1 0.125 0.125 1 0.25 0.125 1 0.375 0.125 1 0.5 0.125 1 0.625 0.125 1 0.75 0.125 1 0.875 0.125 1 1 0.125 1 0 0.25 1 0.125 0.25 1 0.25 0.25 1 0.375 0.25 1 0.5 0.25 1 0.625 0.25 1 0.75 0.25 1 0.875 0.25 1 1 0.25 1 0 0.375 1 0.125 0.375 1 0.25 0.375 1 0.375 0.375 1 0.5 0.375 1 0.625 0.375 1 0.75 0.375 1 0.875 0.375 1 1 0.375 1 0 0.5 1 0.125 0.5 1 0.25 0.5 1 0.375 0.5 1 0.5 0.5 1 0.625 0.5 1 0.75 0.5 1 0.875 0.5 1 1 0.5 1 0 0.625 1 0.125 0.625 1 0.25 0.625 1 0.375 0.625 1 0.5 0.625 1 0.625 0.625 1 0.75 0.625 1 0.875 0.625 1 1 0.625 1 0 0.75 1 0.125 0.75 1 0.25 0.75 1 0.375 0.75 1 0.5 0.75 1 0.625 0.75 1 0.75 0.75 1 0.875 0.75 1 1 0.75 1 0 0.875 1 0.125 0.875 1 0.25 0.875 1 0.375 0.875 1 0.5 0.875 1 0.625 0.875 1 0.75 0.875 1 0.875 0.875 1 1 0.875 1 0 1 1 0.125 1 1 0.25 1 1 0.375 1 1 0.5 1 1 0.625 1 1 0.75 1 1 0.875 1 1 1 1 1         </DataArray>
      </Points>
    </Piece>
  </StructuredGrid>
</VTKFile>
