<?xml version="1.0"?>
<VTKFile type="StructuredGrid" version="0.1" byte_order="LittleEndian">
  <StructuredGrid WholeExtent="0 8 0 8 0 8">
    <Piece Extent="0 8 0 8 0 8">
      <PointData>
      </PointData>
      <CellData>
        <DataArray Name="vy" NumberOfComponents="1" type="Float32" format="ascii">
0.93319853349937742504 0.98752890437817431035 0.97324734064400741929 0.97064332422135424228 0.97064332196652469698 0.97324734249843913858 0.98752890346428900958 0.93319853349391457265 0.78831867013223544394 0.94036675530602331641 0.91621250422441358197 0.90523847006221069833 0.90523847177015093202 0.91621250311520718856 0.94036675563336247219 0.78831867014536860516 0.61895626117983593151 0.85701534847619054158 0.84681601642448656175 0.82937857676747039903 0.82937856861500880434 0.84681602228284047484 0.8570153444823080946 0.61895626078974763651 0.49558209957820309466 0.77328869652522014277 0.78542901582448998443 0.76863303004845706656 0.76863303142082695096 0.7854290136489577856 0.77328869425437829488 0.49558209561822585965 0.41411828257132299314 0.69990926212583137733 0.73316504543212734912 0.72190507892969724146 0.72190508315403445483 0.73316503966722557095 0.69990926513182261104 0.4141182861846763319 0.36283582118443813425 0.64438175345744552747 0.69387750606754616811 0.6896740762094836219 0.6896740473701106211 0.69387752317953355075 0.64438173239605034404 0.36283581621893956637 0.33265292174357741217 0.60668655610965704916 0.66418669642503214146 0.66514343460329006241 0.6651434227564051449 0.66418669595191592858 0.60668654807115773853 0.33265292143343022646 0.31801128707387205097 0.58601822062081332376 0.64777591150231861317 0.65253335445436533302 0.65253332683305498296 0.64777592134508488186 0.58601819647061303975 0.31801128807128031806 0.9875289043812016665 1.0434566097999966594 1.0282596127481993253 1.0258768572392231722 1.0258768158918465385 1.0282596477260892431 1.0434565828677355714 0.98752890348206245896 0.94036675530427404901 1.1234927546356392458 1.0945119527002247217 1.083283706835602711 1.0832837580818519552 1.094511908863256 1.1234927864767862982 0.94036675562341964785 0.85701534847680271856 1.1811935570228275783 1.1649737941377875661 1.1447494600692824651 1.1447494039897463391 1.1649738424487847688 1.1811935261078814197 0.85701534448103777741 0.7732886965282185221 1.2069936496214013211 1.2195653713793079831 1.1959052654941444427 1.1959052994333041475 1.2195653399757775404 1.2069936713126996342 0.77328869425433544027 0.69990926212628101766 1.2046446129135259806 1.2523182049045014086 1.2312698721941244262 1.2312698853160843893 1.2523181967557182048 1.2046446167173656683 0.69990926510326756382 0.64438175347015991257 1.1904447151648920311 1.2730585828287550587 1.2595608392136208309 1.2595607933227181974 1.27305861273106391 1.190444678286070701 0.64438173243619478736 0.60668655611584676457 1.1691840701451234885 1.2757449695552756097 1.2700925247710752597 1.2700925278384564976 1.2757449583258373416 1.1691840820609384899 0.60668654807111177529 0.58601822067423181561 1.1563749056677983251 1.2843312274562386222 1.2886431413532219992 1.2886431377581544222 1.2843312040332615087 1.1563748932522379675 0.58601819675645194785 0.97324734063254914052 1.0282596127622944948 1.0130631017727216303 1.0105761778674737794 1.0105762325199778573 1.013063055586872041 1.0282596478088399383 0.97324734242892874114 0.9162125042273960851 1.0945119527041966556 1.0652223704534702353 1.0537435993530903655 1.0537435267923205284 1.0652224326149533074 1.0945119088847263811 0.91621250313251767494 0.84681601642356596482 1.1649737941156166343 1.1470415904119459771 1.1265182901211214794 1.1265183763025219399 1.1470415166905354454 1.1649738423179891722 0.84681602227246088876 0.78542901582077395695 1.2195653714023779735 1.2285876732601166417 1.204106965116744199 1.2041069124563392734 1.2285877219942646921 1.2195653401206236754 0.78542901360566874658 0.73316504543411975536 1.2523182048720922221 1.295865896850037613 1.2729830164727895525 1.2729830018408458958 1.2958659031347115054 1.2523181965506486879 0.73316503962757129109 0.69387750605085574129 1.2730585828257479086 1.3532718111320063414 1.3368985290237125341 1.3368985660197141296 1.3532717843993515849 1.2730586126572465133 0.69387752299983518345 0.66418669643016303716 1.2757449695458102923 1.3831586197116243486 1.3741219758063216716 1.374121984747505909 1.3831586147572307866 1.2757449581556092877 0.66418669586987688636 0.64777591132291378884 1.2843312276323823884 1.4181014837299050768 1.4190213419500072867 1.419021319881237142 1.4181015161428447424 1.2843312048990043195 0.64777592013369522661 0.97064332424599375493 1.0258768571988827745 1.010576177907559936 1.0080987099071789803 1.0080986444107553623 1.0105762327520557697 1.0258768156433550889 0.97064332211003201412 0.90523847005668767185 1.0832837068253680091 1.0537435993563790682 1.0420529229213679745 1.0420530087470123437 1.05374352680854666 1.0832837580165457503 0.90523847173612015382 0.82937857676589821221 1.1447494601148400228 1.1265182900940720057 1.1055404841188889442 1.1055403829150876049 1.1265183761383299466 1.1447494042645793844 0.82937856860907022138 0.76863303005379646216 1.1959052654174753272 1.2041069651715163857 1.1792387966505568642 1.1792388532262780831 1.2041069128634278584 1.1959052990443186371 0.7686330314538444286 0.72190507893966171515 1.2312698722750137215 1.2729830163935753617 1.2499183113338456774 1.2499183357573444564 1.2729830014829399687 1.2312698858648867262 0.72190508316213919393 0.68967407625414356431 1.2595608392050667845 1.33689852906220219 1.3203447737411644347 1.3203447202861493537 1.3368985663143644338 1.2595607932491721392 0.68967404750677474556 0.66514343463004610424 1.2700925248024579339 1.3741219758642084781 1.3647699546292517692 1.3647699341882080226 1.374121985016319103 1.2700925278005412711 0.66514342264234782576 0.65253335488098396233 1.2886431409251977165 1.4190213424612503346 1.4192157434602494792 1.4192157331614192461 1.4190213226519352574 1.2886431347134301717 0.65253332897991056516 0.97064332193184865716 1.0258768159565796463 1.0105762324415883402 1.0080986444618440512 1.0080987102054441706 1.0105761773901473788 1.0258768576187196064 0.97064332401077235701 0.90523847177621474813 1.08328375809477917 1.0537435267923305204 1.0420530087415640352 1.0420529228864252591 1.0537435993498998066 1.0832837069069185532 0.90523847009710112221 0.82937856861452696755 1.1447494039158148116 1.1265183763631767544 1.1055403828767784713 1.1055404838877544993 1.1265182904822470533 1.1447494596318033011 0.82937857677027515546 0.76863303140734251517 1.195905299533688293 1.2041069123277057251 1.1792388532844466642 1.1792387970759528049 1.2041069644457791377 1.1959052661640683368 0.76863302997977400732 0.72190508313978640764 1.2312698851669019451 1.2729830019665027141 1.2499183356580587656 1.2499183108613802773 1.2729830173643599256 1.2312698713819654195 0.72190507881778165356 0.68967404733426740382 1.2595607933385550847 1.3368985659373731067 1.320344720309891029 1.320344773960527851 1.3368985286101597865 1.2595608393164752226 0.68967407590408635887 0.66514342277250981805 1.2700925278254755479 1.3741219846897030354 1.3647699342042933779 1.3647699546884484167 1.3741219753792455194 1.270092524518984467 0.66514343447772650286 0.65253332629058757863 1.2886431385306815756 1.4190213189503959601 1.4192157337186299682 1.4192157465733628019 1.4190213360552179633 1.2886431455412610259 0.65253335087277597459 0.97324734253399936001 1.0282596476575371902 1.0130630556803730258 1.0105762326736653645 1.0105761774302348677 1.0130631023281169156 1.0282596123370815189 0.97324734085544806206 0.91621250311023050283 1.0945119088444581479 1.065222432622094928 1.0537435268085584283 1.053743599353187399 1.0652223704914722813 1.0945119525869546617 0.91621250419326660808 0.84681602227695129681 1.1649738425328464153 1.1470415166083438585 1.1265183761989863154 1.1265182904551989118 1.1470415899260986148 1.1649737946410729794 0.84681601639040360308 0.78542901365389927726 1.2195653398344175056 1.2285877221501499967 1.2041069127347916456 1.2041069645005473276 1.2285876742263566186 1.2195653705452345061 0.78542901585869540071 0.73316503967633228633 1.2523181969045118489 1.2958659029544972174 1.2729830016085781352 1.2729830172851273051 1.2958658958233228997 1.2523182058039195041 0.73316504549637151467 0.69387752321583662241 1.2730586126832463822 1.3532717844992390166 1.3368985662320178598 1.3368985286486492203 1.3532718117421100867 1.2730585825445528414 0.69387750629871458585 0.66418669594388568544 1.2757449583138869009 1.3831586148675054648 1.3741219849585128987 1.3741219754371287731 1.3831586203266355017 1.2757449694766951342 0.66418669639431271445 0.64777592197925526474 1.284331203127226928 1.4181015174244075983 1.4190213217210403407 1.4190213365664019474 1.4181014912186102883 1.2843312219978166855 0.64777591530378120233 0.98752890343814225815 1.0434565829137130155 1.0282596477402854429 1.0258768157080890848 1.0258768575783765442 1.0282596123511769104 1.043456610075190083 0.98752890422210193311 0.94036675563410221379 1.1234927865071284714 1.094511908865928973 1.0832837580294742974 1.0832837068966885141 1.0945119525909248193 1.123492754815516026 0.94036675531006375106 0.85701534448237948194 1.1811935260152126581 1.1649738424020525951 1.1447494041906469686 1.1447494596773599707 1.1649737946189040461 1.1811935564694329148 0.85701534847986027277 0.77328869424068680249 1.2069936714242486264 1.2195653399792680815 1.1959052991446947889 1.1959052660873912277 1.2195653705683098256 1.2069936502855460603 0.7732886964575210742 0.69990926510801187987 1.2046446165702608955 1.2523181966994498815 1.2312698857156958443 1.2312698714628438346 1.2523182057715176452 1.2046446120478220276 0.69990926202448811022 0.64438173234371032283 1.190444678248496313 1.2730586126094323163 1.259560793265005918 1.2595608393079134046 1.2730585825415514645 1.1904447149977868126 0.64438175322764656983 0.60668654804959765148 1.1691840819515164629 1.2757449581436597352 1.2700925277875547703 1.2700925245503640326 1.2757449694672309271 1.169184069610898602 0.60668655611122201954 0.58601819592088666422 1.1563748938165936408 1.2843312039929730695 1.2886431354859440024 1.2886431451132314141 1.284331222173962006 1.1563749092211006442 0.58601821751212446188 0.93319853350702086647 0.98752890345591526344 0.97324734246448885155 0.97064332207535486408 0.97064332403541109251 0.97324734084398956124 0.98752890422512906721 0.93319853357765014668 0.7883186701368185556 0.94036675562416005558 0.91621250312753954592 0.90523847174218807776 0.90523847009158109334 0.91621250419624833405 0.94036675530831426162 0.78831867008279798981 0.61895626079649046503 0.85701534448110960884 0.84681602226657548549 0.82937856860858383268 0.82937857676869897183 0.84681601638948644784 0.85701534848047211668 0.61895626122905200717 0.49558209559632848684 0.77328869424064539118 0.78542901361062056331 0.76863303144034622605 0.76863302998510008024 0.78542901585498892114 0.77328869646052011966 0.49558209946805381607 0.41411828619609419855 0.69990926507945749879 0.73316503963668666621 0.72190508314788093269 0.72190507882773569115 0.73316504549837147042 0.69990926202493886077 0.4141182826793370908 0.3628358161841492846 0.64438173238385443309 0.69387752303614003146 0.6896740474709286417 0.68967407594874197141 0.69387750628202671255 0.64438175324036117697 0.36283582104216899333 0.3326529214131788148 0.60668654804955213233 0.66418669586184542197 0.6651434226584475029 0.66514343450447854789 0.66418669639944349914 0.60668655611741140188 0.33265292171662158571 0.31801128823225038866 0.58601819620672557232 0.64777592076786483233 0.65253332843743649949 0.65253335129938905279 0.64777591512437704413 0.58601821756554217657 0.31801128815630175239 
        </DataArray>
      </CellData>
      <Points>
        <DataArray Name="m" NumberOfComponents="3" type="Float32" format="ascii">
0 0 0 0.125 0 0 0.25 0 0 0.375 0 0 0.5 0 0 0.625 0 0 0.75 0 0 0.875 0 0 1 0 0 0 0.125 0 0.125 0.125 0 0.25 0.125 0 0.375 0.125 0 0.5 0.125 0 0.625 0.125 0 0.75 0.125 0 0.875 0.125 0 1 0.125 0 0 0.25 0 0.125 0.25 0 0.25 0.25 0 0.375 0.25 0 0.5 0.25 0 0.625 0.25 0 0.75 0.25 0 0.875 0.25 0 1 0.25 0 0 0.375 0 0.125 0.375 0 0.25 0.375 0 0.375 0.375 0 0.5 0.375 0 0.625 0.375 0 0.75 0.375 0 0.875 0.375 0 1 0.375 0 0 0.5 0 0.125 0.5 0 0.25 0.5 0 0.375 0.5 0 0.5 0.5 0 0.625 0.5 0 0.75 0.5 0 0.875 0.5 0 1 0.5 0 0 0.625 0 0.125 0.625 0 0.25 0.625 0 0.375 0.625 0 0.5 0.625 0 0.625 0.625 0 0.75 0.625 0 0.875 0.625 0 1 0.625 0 0 0.75 0 0.125 0.75 0 0.25 0.75 0 0.375 0.75 0 0.5 0.75 0 0.625 0.75 0 0.75 0.75 0 0.875 0.75 0 1 0.75 0 0 0.875 0 0.125 0.875 0 0.25 0.875 0 0.375 0.875 0 0.5 0.875 0 0.625 0.875 0 0.75 0.875 0 0.875 0.875 0 1 0.875 0 0 1 0 0.125 1 0 0.25 1 0 0.375 1 0 0.5 1 0 0.625 1 0 0.75 1 0 0.875 1 0 1 1 0 0 0 0.125 0.125 0 0.125 0.25 0 0.125 0.375 0 0.125 0.5 0 0.125 0.625 0 0.125 0.75 0 0.125 0.875 0 0.125 1 0 0.125 0 0.125 0.125 0.125 0.125 0.125 0.25 0.125 0.125 0.375 0.125 0.125 0.5 0.125 0.125 0.625 0.125 0.125 0.75 0.125 0.125 0.875 0.125 0.125 1 0.125 0.125 0 0.25 0.125 0.125 0.25 0.125 0.25 0.25 0.125 0.375 0.25 0.125 0.5 0.25 0.125 0.625 0.25 0.125 0.75 0.25 0.125 0.875 0.25 0.125 1 0.25 0.125 0 0.375 0.125 0.125 0.375 0.125 0.25 0.375 0.125 0.375 0.375 0.125 0.5 0.375 0.125 0.625 0.375 0.125 0.75 0.375 0.125 0.875 0.375 0.125 1 0.375 0.125 0 0.5 0.125 0.125 0.5 0.125 0.25 0.5 0.125 0.375 0.5 0.125 0.5 0.5 0.125 0.625 0.5 0.125 0.75 0.5 0.125 0.875 0.5 0.125 1 0.5 0.125 0 0.625 0.125 0.125 0.625 0.125 0.25 0.625 0.125 0.375 0.625 0.125 0.5 0.625 0.125 0.625 0.625 0.125 0.75 0.625 0.125 0.875 0.625 0.125 1 0.625 0.125 0 0.75 0.125 0.125 0.75 0.125 0.25 0.75 0.125 0.375 0.75 0.125 0.5 0.75 0.125 0.625 0.75 0.125 0.75 0.75 0.125 0.875 0.75 0.125 1 0.75 0.125 0 0.875 0.125 0.125 0.875 0.125 0.25 0.875 0.125 0.375 0.875 0.125 0.5 0.875 0.125 0.625 0.875 0.125 0.75 0.875 0.125 0.875 0.875 0.125 1 0.875 0.125 0 1 0.125 0.125 1 0.125 0.25 1 0.125 0.375 1 0.125 0.5 1 0.125 0.625 1 0.125 0.75 1 0.125 0.875 1 0.125 1 1 0.125 0 0 0.25 0.125 0 0.25 0.25 0 0.25 0.375 0 0.25 0.5 0 0.25 0.625 0 0.25 0.75 0 0.25 0.875 0 0.25 1 0 0.25 0 0.125 0.25 0.125 0.125 0.25 0.25 0.125 0.25 0.375 0.125 0.25 0.5 0.125 0.25 0.625 0.125 0.25 0.75 0.125 0.25 0.875 0.125 0.25 1 0.125 0.25 0 0.25 0.25 0.125 0.25 0.25 0.25 0.25 0.25 0.375 0.25 0.25 0.5 0.25 0.25 0.625 0.25 0.25 0.75 0.25 0.25 0.875 0.25 0.25 1 0.25 0.25 0 0.375 0.25 0.125 0.375 0.25 0.25 0.375 0.25 0.375 0.375 0.25 0.5 0.375 0.25 0.625 0.375 0.25 0.75 0.375 0.25 0.875 0.375 0.25 1 0.375 0.25 0 0.5 0.25 0.125 0.5 0.25 0.25 0.5 0.25 0.375 0.5 0.25 0.5 0.5 0.25 0.625 0.5 0.25 0.75 0.5 0.25 0.875 0.5 0.25 1 0.5 0.25 0 0.625 0.25 0.125 0.625 0.25 0.25 0.625 0.25 0.375 0.625 0.25 0.5 0.625 0.25 0.625 0.625 0.25 0.75 0.625 0.25 0.875 0.625 0.25 1 0.625 0.25 0 0.75 0.25 0.125 0.75 0.25 0.25 0.75 0.25 0.375 0.75 0.25 0.5 0.75 0.25 0.625 0.75 0.25 0.75 0.75 0.25 0.875 0.75 0.25 1 0.75 0.25 0 0.875 0.25 0.125 0.875 0.25 0.25 0.875 0.25 0.375 0.875 0.25 0.5 0.875 0.25 0.625 0.875 0.25 0.75 0.875 0.25 0.875 0.875 0.25 1 0.875 0.25 0 1 0.25 0.125 1 0.25 0.25 1 0.25 0.375 1 0.25 0.5 1 0.25 0.625 1 0.25 0.75 1 0.25 0.875 1 0.25 1 1 0.25 0 0 0.375 0.125 0 0.375 0.25 0 0.375 0.375 0 0.375 0.5 0 0.375 0.625 0 0.375 0.75 0 0.375 0.875 0 0.375 1 0 0.375 0 0.125 0.375 0.125 0.125 0.375 0.25 0.125 0.375 0.375 0.125 0.375 0.5 0.125 0.375 0.625 0.125 0.375 0.75 0.125 0.375 0.875 0.125 0.375 1 0.125 0.375 0 0.25 0.375 0.125 0.25 0.375 0.25 0.25 0.375 0.375 0.25 0.375 0.5 0.25 0.375 0.625 0.25 0.375 0.75 0.25 0.375 0.875 0.25 0.375 1 0.25 0.375 0 0.375 0.375 0.125 0.375 0.375 0.25 0.375 0.375 0.375 0.375 0.375 0.5 0.375 0.375 0.625 0.375 0.375 0.75 0.375 0.375 0.875 0.375 0.375 1 0.375 0.375 0 0.5 0.375 0.125 0.5 0.375 0.25 0.5 0.375 0.375 0.5 0.375 0.5 0.5 0.375 0.625 0.5 0.375 0.75 0.5 0.375 0.875 0.5 0.375 1 0.5 0.375 0 0.625 0.375 0.125 0.625 0.375 0.25 0.625 0.375 0.375 0.625 0.375 0.5 0.625 0.375 0.625 0.625 0.375 0.75 0.625 0.375 0.875 0.625 0.375 1 0.625 0.375 0 0.75 0.375 0.125 0.75 0.375 0.25 0.75 0.375 0.375 0.75 0.375 0.5 0.75 0.375 0.625 0.75 0.375 0.75 0.75 0.375 0.875 0.75 0.375 1 0.75 0.375 0 0.875 0.375 0.125 0.875 0.375 0.25 0.875 0.375 0.375 0.875 0.375 0.5 0.875 0.375 0.625 0.875 0.375 0.75 0.875 0.375 0.875 0.875 0.375 1 0.875 0.375 0 1 0.375 0.125 1 0.375 0.25 1 0.375 0.375 1 0.375 0.5 1 0.375 0.625 1 0.375 0.75 1 0.375 0.875 1 0.375 1 1 0.375 0 0 0.5 0.125 0 0.5 0.25 0 0.5 0.375 0 0.5 0.5 0 0.5 0.625 0 0.5 0.75 0 0.5 0.875 0 0.5 1 0 0.5 0 0.125 0.5 0.125 0.125 0.5 0.25 0.125 0.5 0.375 0.125 0.5 0.5 0.125 0.5 0.625 0.125 0.5 0.75 0.125 0.5 0.875 0.125 0.5 1 0.125 0.5 0 0.25 0.5 0.125 0.25 0.5 0.25 0.25 0.5 0.375 0.25 0.5 0.5 0.25 0.5 0.625 0.25 0.5 0.75 0.25 0.5 0.875 0.25 0.5 1 0.25 0.5 0 0.375 0.5 0.125 0.375 0.5 0.25 0.375 0.5 0.375 0.375 0.5 0.5 0.375 0.5 0.625 0.375 0.5 0.75 0.375 0.5 0.875 0.375 0.5 1 0.375 0.5 0 0.5 0.5 0.125 0.5 0.5 0.25 0.5 0.5 0.375 0.5 0.5 0.5 0.5 0.5 0.625 0.5 0.5 0.75 0.5 0.5 0.875 0.5 0.5 1 0.5 0.5 0 0.625 0.5 0.125 0.625 0.5 0.25 0.625 0.5 0.375 0.625 0.5 0.5 0.625 0.5 0.625 0.625 0.5 0.75 0.625 0.5 0.875 0.625 0.5 1 0.625 0.5 0 0.75 0.5 0.125 0.75 0.5 0.25 0.75 0.5 0.375 0.75 0.5 0.5 0.75 0.5 0.625 0.75 0.5 0.75 0.75 0.5 0.875 0.75 0.5 1 0.75 0.5 0 0.875 0.5 0.125 0.875 0.5 0.25 0.875 0.5 0.375 0.875 0.5 0.5 0.875 0.5 0.625 0.875 0.5 0.75 0.875 0.5 0.875 0.875 0.5 1 0.875 0.5 0 1 0.5 0.125 1 0.5 0.25 1 0.5 0.375 1 0.5 0.5 1 0.5 0.625 1 0.5 0.75 1 0.5 0.875 1 0.5 1 1 0.5 0 0 0.625 0.125 0 0.625 0.25 0 0.625 0.375 0 0.625 0.5 0 0.625 0.625 0 0.625 0.75 0 0.625 0.875 0 0.625 1 0 0.625 0 0.125 0.625 0.125 0.125 0.625 0.25 0.125 0.625 0.375 0.125 0.625 0.5 0.125 0.625 0.625 0.125 0.625 0.75 0.125 0.625 0.875 0.125 0.625 1 0.125 0.625 0 0.25 0.625 0.125 0.25 0.625 0.25 0.25 0.625 0.375 0.25 0.625 0.5 0.25 0.625 0.625 0.25 0.625 0.75 0.25 0.625 0.875 0.25 0.625 1 0.25 0.625 0 0.375 0.625 0.125 0.375 0.625 0.25 0.375 0.625 0.375 0.375 0.625 0.5 0.375 0.625 0.625 0.375 0.625 0.75 0.375 0.625 0.875 0.375 0.625 1 0.375 0.625 0 0.5 0.625 0.125 0.5 0.625 0.25 0.5 0.625 0.375 0.5 0.625 0.5 0.5 0.625 0.625 0.5 0.625 0.75 0.5 0.625 0.875 0.5 0.625 1 0.5 0.625 0 0.625 0.625 0.125 0.625 0.625 0.25 0.625 0.625 0.375 0.625 0.625 0.5 0.625 0.625 0.625 0.625 0.625 0.75 0.625 0.625 0.875 0.625 0.625 1 0.625 0.625 0 0.75 0.625 0.125 0.75 0.625 0.25 0.75 0.625 0.375 0.75 0.625 0.5 0.75 0.625 0.625 0.75 0.625 0.75 0.75 0.625 0.875 0.75 0.625 1 0.75 0.625 0 0.875 0.625 0.125 0.875 0.625 0.25 0.875 0.625 0.375 0.875 0.625 0.5 0.875 0.625 0.625 0.875 0.625 0.75 0.875 0.625 0.875 0.875 0.625 1 0.875 0.625 0 1 0.625 0.125 1 0.625 0.25 1 0.625 0.375 1 0.625 0.5 1 0.625 0.625 1 0.625 0.75 1 0.625 0.875 1 0.625 1 1 0.625 0 0 0.75 0.125 0 0.75 0.25 0 0.75 0.375 0 0.75 0.5 0 0.75 0.625 0 0.75 0.75 0 0.75 0.875 0 0.75 1 0 0.75 0 0.125 0.75 0.125 0.125 0.75 0.25 0.125 0.75 0.375 0.125 0.75 0.5 0.125 0.75 0.625 0.125 0.75 0.75 0.125 0.75 0.875 0.125 0.75 1 0.125 0.75 0 0.25 0.75 0.125 0.25 0.75 0.25 0.25 0.75 0.375 0.25 0.75 0.5 0.25 0.75 0.625 0.25 0.75 0.75 0.25 0.75 0.875 0.25 0.75 1 0.25 0.75 0 0.375 0.75 0.125 0.375 0.75 0.25 0.375 0.75 0.375 0.375 0.75 0.5 0.375 0.75 0.625 0.375 0.75 0.75 0.375 0.75 0.875 0.375 0.75 1 0.375 0.75 0 0.5 0.75 0.125 0.5 0.75 0.25 0.5 0.75 0.375 0.5 0.75 0.5 0.5 0.75 0.625 0.5 0.75 0.75 0.5 0.75 0.875 0.5 0.75 1 0.5 0.75 0 0.625 0.75 0.125 0.625 0.75 0.25 0.625 0.75 0.375 0.625 0.75 0.5 0.625 0.75 0.625 0.625 0.75 0.75 0.625 0.75 0.875 0.625 0.75 1 0.625 0.75 0 0.75 0.75 0.125 0.75 0.75 0.25 0.75 0.75 0.375 0.75 0.75 0.5 0.75 0.75 0.625 0.75 0.75 0.75 0.75 0.75 0.875 0.75 0.75 1 0.75 0.75 0 0.875 0.75 0.125 0.875 0.75 0.25 0.875 0.75 0.375 0.875 0.75 0.5 0.875 0.75 0.625 0.875 0.75 0.75 0.875 0.75 0.875 0.875 0.75 1 0.875 0.75 0 1 0.75 0.125 1 0.75 0.25 1 0.75 0.375 1 0.75 0.5 1 0.75 0.625 1 0.75 0.75 1 0.75 0.875 1 0.75 1 1 0.75 0 0 0.875 0.125 0 0.875 0.25 0 0.875 0.375 0 0.875 0.5 0 0.875 0.625 0 0.875 0.75 0 0.875 0.875 0 0.875 1 0 0.875 0 0.125 0.875 0.125 0.125 0.875 0.25 0.125 0.875 0.375 0.125 0.875 0.5 0.125 0.875 0.625 0.125 0.875 0.75 0.125 0.875 0.875 0.125 0.875 1 0.125 0.875 0 0.25 0.875 0.125 0.25 0.875 0.25 0.25 0.875 0.375 0.25 0.875 0.5 0.25 0.875 0.625 0.25 0.875 0.75 0.25 0.875 0.875 0.25 0.875 1 0.25 0.875 0 0.375 0.875 0.125 0.375 0.875 0.25 0.375 0.875 0.375 0.375 0.875 0.5 0.375 0.875 0.625 0.375 0.875 0.75 0.375 0.875 0.875 0.375 0.875 1 0.375 0.875 0 0.5 0.875 0.125 0.5 0.875 0.25 0.5 0.875 0.375 0.5 0.875 0.5 0.5 0.875 0.625 0.5 0.875 0.75 0.5 0.875 0.875 0.5 0.875 1 0.5 0.875 0 0.625 0.875 0.125 0.625 0.875 0.25 0.625 0.875 0.375 0.625 0.875 0.5 0.625 0.875 0.625 0.625 0.875 0.75 0.625 0.875 0.875 0.625 0.875 1 0.625 0.875 0 0.75 0.875 0.125 0.75 0.875 0.25 0.75 0.875 0.375 0.75 0.875 0.5 0.75 0.875 0.625 0.75 0.875 0.75 0.75 0.875 0.875 0.75 0.875 1 0.75 0.875 0 0.875 0.875 0.125 0.875 0.875 0.25 0.875 0.875 0.375 0.875 0.875 0.5 0.875 0.875 0.625 0.875 0.875 0.75 0.875 0.875 0.875 0.875 0.875 1 0.875 0.875 0 1 0.875 0.125 1 0.875 0.25 1 0.875 0.375 1 0.875 0.5 1 0.875 0.625 1 0.875 0.75 1 0.875 0.875 1 0.875 1 1 0.875 0 0 1 0.125 0 1 0.25 0 1 0.375 0 1 0.5 0 1 0.625 0 1 0.75 0 1 0.875 0 1 1 0 1 0 0.125 1 0.125 0.125 1 0.25 0.125 1 0.375 0.125 1 0.5 0.125 1 0.625 0.125 1 0.75 0.125 1 0.875 0.125 1 1 0.125 1 0 0.25 1 0.125 0.25 1 0.25 0.25 1 0.375 0.25 1 0.5 0.25 1 0.625 0.25 1 0.75 0.25 1 0.875 0.25 1 1 0.25 1 0 0.375 1 0.125 0.375 1 0.25 0.375 1 0.375 0.375 1 0.5 0.375 1 0.625 0.375 1 0.75 0.375 1 0.875 0.375 1 1 0.375 1 0 0.5 1 0.125 0.5 1 0.25 0.5 1 0.375 0.5 1 0.5 0.5 1 0.625 0.5 1 0.75 0.5 1 0.875 0.5 1 1 0.5 1 0 0.625 1 0.125 0.625 1 0.25 0.625 1 0.375 0.625 1 0.5 0.625 1 0.625 0.625 1 0.75 0.625 1 0.875 0.625 1 1 0.625 1 0 0.75 1 0.125 0.75 1 0.25 0.75 1 0.375 0.75 1 0.5 0.75 1 0.625 0.75 1 0.75 0.75 1 0.875 0.75 1 1 0.75 1 0 0.875 1 0.125 0.875 1 0.25 0.875 1 0.375 0.875 1 0.5 0.875 1 0.625 0.875 1 0.75 0.875 1 0.875 0.875 1 1 0.875 1 0 1 1 0.125 1 1 0.25 1 1 0.375 1 1 0.5 1 1 0.625 1 1 0.75 1 1 0.875 1 1 1 1 1         </DataArray>
      </Points>
    </Piece>
  </StructuredGrid>
</VTKFile>
