# vtk DataFile Version 2.0
Reconstructed linear interface
ASCII
DATASET POLYDATA
POINTS 2912 float
0.25043 -0.015625 -0.0078125
0.25043 -0.015625 0
0.250066 -0.0078125 0
0.250066 -0.0078125 -0.0078125
0.25006 -0.0078125 -0.0078125
0.25 -0.00377814 -0.0078125
0.25 -0.00377814 0
0.25006 -0.0078125 0
0.25006 0.0078125 -0.0078125
0.25 0.00377814 -0.0078125
0.25 0.00377814 0
0.25006 0.0078125 0
0.25043 0.015625 -0.0078125
0.25043 0.015625 0
0.250066 0.0078125 0
0.250066 0.0078125 -0.0078125
0.251054 0.0234375 -0.0078125
0.251054 0.0234375 0
0.250434 0.015625 0
0.250434 0.015625 -0.0078125
0.251922 0.03125 -0.0078125
0.251922 0.03125 0
0.251054 0.0234375 0
0.251054 0.0234375 -0.0078125
0.253038 0.0390625 0
0.253038 0.0390625 -0.0078125
0.251922 0.03125 -0.0078125
0.251922 0.03125 0
0.254402 0.046875 0
0.254402 0.046875 -0.0078125
0.253038 0.0390625 -0.0078125
0.253038 0.0390625 0
0.254402 0.046875 -0.0078125
0.254402 0.046875 0
0.256014 0.0546875 0
0.256014 0.0546875 -0.0078125
0.256006 0.0546875 0
0.257812 0.0622027 0
0.257812 0.0622027 -0.0078125
0.256006 0.0546875 -0.0078125
0.25043 -0.015625 0
0.25043 -0.015625 0.0078125
0.250066 -0.0078125 0.0078125
0.250066 -0.0078125 0
0.25006 -0.0078125 0
0.25 -0.00377814 0
0.25 -0.00377814 0.0078125
0.25006 -0.0078125 0.0078125
0.25006 0.0078125 0
0.25 0.00377814 0
0.25 0.00377814 0.0078125
0.25006 0.0078125 0.0078125
0.25043 0.015625 0
0.25043 0.015625 0.0078125
0.250066 0.0078125 0.0078125
0.250066 0.0078125 0
0.251054 0.0234375 0
0.251054 0.0234375 0.0078125
0.250434 0.015625 0.0078125
0.250434 0.015625 0
0.251922 0.03125 0
0.251922 0.03125 0.0078125
0.251054 0.0234375 0.0078125
0.251054 0.0234375 0
0.253038 0.0390625 0.0078125
0.253038 0.0390625 0
0.251922 0.03125 0
0.251922 0.03125 0.0078125
0.254402 0.046875 0.0078125
0.254402 0.046875 0
0.253038 0.0390625 0
0.253038 0.0390625 0.0078125
0.254402 0.046875 0
0.254402 0.046875 0.0078125
0.256014 0.0546875 0.0078125
0.256014 0.0546875 0
0.256006 0.0546875 0.0078125
0.257812 0.0622027 0.0078125
0.257812 0.0622027 0
0.256006 0.0546875 0
0.25043 -0.015625 0.0078125
0.25043 -0.015625 0.015625
0.250066 -0.0078125 0.015625
0.250066 -0.0078125 0.0078125
0.25006 -0.0078125 0.0078125
0.25 -0.00377814 0.0078125
0.25 -0.00377814 0.015625
0.25006 -0.0078125 0.015625
0.25006 0.0078125 0.0078125
0.25 0.00377814 0.0078125
0.25 0.00377814 0.015625
0.25006 0.0078125 0.015625
0.25043 0.015625 0.0078125
0.25043 0.015625 0.015625
0.250066 0.0078125 0.015625
0.250066 0.0078125 0.0078125
0.251054 0.0234375 0.0078125
0.251054 0.0234375 0.015625
0.250434 0.015625 0.015625
0.250434 0.015625 0.0078125
0.251922 0.03125 0.0078125
0.251922 0.03125 0.015625
0.251054 0.0234375 0.015625
0.251054 0.0234375 0.0078125
0.253038 0.0390625 0.015625
0.253038 0.0390625 0.0078125
0.251922 0.03125 0.0078125
0.251922 0.03125 0.015625
0.254402 0.046875 0.015625
0.254402 0.046875 0.0078125
0.253038 0.0390625 0.0078125
0.253038 0.0390625 0.015625
0.254402 0.046875 0.0078125
0.254402 0.046875 0.015625
0.256014 0.0546875 0.015625
0.256014 0.0546875 0.0078125
0.256006 0.0546875 0.015625
0.257812 0.0622027 0.015625
0.257812 0.0622027 0.0078125
0.256006 0.0546875 0.0078125
0.25043 -0.015625 0.015625
0.25043 -0.015625 0.0234375
0.250066 -0.0078125 0.0234375
0.250066 -0.0078125 0.015625
0.25006 -0.0078125 0.015625
0.25 -0.00377814 0.015625
0.25 -0.00377814 0.0234375
0.25006 -0.0078125 0.0234375
0.25006 0.0078125 0.015625
0.25 0.00377814 0.015625
0.25 0.00377814 0.0234375
0.25006 0.0078125 0.0234375
0.25043 0.015625 0.015625
0.25043 0.015625 0.0234375
0.250066 0.0078125 0.0234375
0.250066 0.0078125 0.015625
0.251054 0.0234375 0.015625
0.251054 0.0234375 0.0234375
0.250434 0.015625 0.0234375
0.250434 0.015625 0.015625
0.251922 0.03125 0.015625
0.251922 0.03125 0.0234375
0.251054 0.0234375 0.0234375
0.251054 0.0234375 0.015625
0.253038 0.0390625 0.0234375
0.253038 0.0390625 0.015625
0.251922 0.03125 0.015625
0.251922 0.03125 0.0234375
0.254402 0.046875 0.0234375
0.254402 0.046875 0.015625
0.253038 0.0390625 0.015625
0.253038 0.0390625 0.0234375
0.254402 0.046875 0.015625
0.254402 0.046875 0.0234375
0.256014 0.0546875 0.0234375
0.256014 0.0546875 0.015625
0.256006 0.0546875 0.0234375
0.257812 0.0622027 0.0234375
0.257812 0.0622027 0.015625
0.256006 0.0546875 0.015625
0.25043 -0.015625 -0.0078125
0.25043 -0.015625 0
0.250066 -0.0078125 0
0.250066 -0.0078125 -0.0078125
0.25006 -0.0078125 -0.0078125
0.25 -0.00377814 -0.0078125
0.25 -0.00377814 0
0.25006 -0.0078125 0
0.25006 0.0078125 -0.0078125
0.25 0.00377814 -0.0078125
0.25 0.00377814 0
0.25006 0.0078125 0
0.25043 0.015625 -0.0078125
0.25043 0.015625 0
0.250066 0.0078125 0
0.250066 0.0078125 -0.0078125
0.251054 0.0234375 -0.0078125
0.251054 0.0234375 0
0.250434 0.015625 0
0.250434 0.015625 -0.0078125
0.251922 0.03125 -0.0078125
0.251922 0.03125 0
0.251054 0.0234375 0
0.251054 0.0234375 -0.0078125
0.253038 0.0390625 0
0.253038 0.0390625 -0.0078125
0.251922 0.03125 -0.0078125
0.251922 0.03125 0
0.254402 0.046875 0
0.254402 0.046875 -0.0078125
0.253038 0.0390625 -0.0078125
0.253038 0.0390625 0
0.254402 0.046875 -0.0078125
0.254402 0.046875 0
0.256014 0.0546875 0
0.256014 0.0546875 -0.0078125
0.256006 0.0546875 0
0.257812 0.0622027 0
0.257812 0.0622027 -0.0078125
0.256006 0.0546875 -0.0078125
0.257876 0.0625 0
0.257812 0.0622366 0
0.257812 0.0622366 -0.0078125
0.257876 0.0625 -0.0078125
0.260047 0.0703125 -0.0078125
0.260047 0.0703125 0
0.257884 0.0625 0
0.257884 0.0625 -0.0078125
0.262487 0.078125 -0.0078125
0.262487 0.078125 0
0.260054 0.0703125 0
0.260054 0.0703125 -0.0078125
0.262478 0.078125 -0.0078125
0.262478 0.078125 0
0.265186 0.0859375 0
0.265186 0.0859375 -0.0078125
0.265171 0.0859375 0
0.265625 0.0871126 0
0.265625 0.0871126 -0.0078125
0.265171 0.0859375 -0.0078125
0.268194 0.09375 0
0.265625 0.0870931 0
0.265625 0.0870931 -0.0078125
0.268194 0.09375 -0.0078125
0.268204 0.09375 -0.0078125
0.268204 0.09375 0
0.271521 0.101562 0
0.271521 0.101562 -0.0078125
0.271501 0.101562 0
0.273438 0.105722 0
0.273438 0.105722 -0.0078125
0.271501 0.101562 -0.0078125
0.275136 0.109375 0
0.273438 0.105727 0
0.273438 0.105727 -0.0078125
0.275136 0.109375 -0.0078125
0.279126 0.117188 -0.0078125
0.279126 0.117188 0
0.27515 0.109375 0
0.27515 0.109375 -0.0078125
0.279106 0.117188 0
0.28125 0.121058 0
0.28125 0.121058 -0.0078125
0.279106 0.117188 -0.0078125
0.283433 0.125 0
0.28125 0.12106 0
0.28125 0.12106 -0.0078125
0.283433 0.125 -0.0078125
0.283441 0.125 -0.0078125
0.283441 0.125 0
0.28815 0.132812 0
0.28815 0.132812 -0.0078125
0.25043 -0.015625 0
0.25043 -0.015625 0.0078125
0.250066 -0.0078125 0.0078125
0.250066 -0.0078125 0
0.25006 -0.0078125 0
0.25 -0.00377814 0
0.25 -0.00377814 0.0078125
0.25006 -0.0078125 0.0078125
0.25006 0.0078125 0
0.25 0.00377814 0
0.25 0.00377814 0.0078125
0.25006 0.0078125 0.0078125
0.25043 0.015625 0
0.25043 0.015625 0.0078125
0.250066 0.0078125 0.0078125
0.250066 0.0078125 0
0.251054 0.0234375 0
0.251054 0.0234375 0.0078125
0.250434 0.015625 0.0078125
0.250434 0.015625 0
0.251922 0.03125 0
0.251922 0.03125 0.0078125
0.251054 0.0234375 0.0078125
0.251054 0.0234375 0
0.253038 0.0390625 0.0078125
0.253038 0.0390625 0
0.251922 0.03125 0
0.251922 0.03125 0.0078125
0.254402 0.046875 0.0078125
0.254402 0.046875 0
0.253038 0.0390625 0
0.253038 0.0390625 0.0078125
0.254402 0.046875 0
0.254402 0.046875 0.0078125
0.256014 0.0546875 0.0078125
0.256014 0.0546875 0
0.256006 0.0546875 0.0078125
0.257812 0.0622027 0.0078125
0.257812 0.0622027 0
0.256006 0.0546875 0
0.257876 0.0625 0.0078125
0.257812 0.0622366 0.0078125
0.257812 0.0622366 0
0.257876 0.0625 0
0.260047 0.0703125 0
0.260047 0.0703125 0.0078125
0.257884 0.0625 0.0078125
0.257884 0.0625 0
0.262487 0.078125 0
0.262487 0.078125 0.0078125
0.260054 0.0703125 0.0078125
0.260054 0.0703125 0
0.262478 0.078125 0
0.262478 0.078125 0.0078125
0.265186 0.0859375 0.0078125
0.265186 0.0859375 0
0.265171 0.0859375 0.0078125
0.265625 0.0871126 0.0078125
0.265625 0.0871126 0
0.265171 0.0859375 0
0.268194 0.09375 0.0078125
0.265625 0.0870931 0.0078125
0.265625 0.0870931 0
0.268194 0.09375 0
0.268204 0.09375 0
0.268204 0.09375 0.0078125
0.271521 0.101562 0.0078125
0.271521 0.101562 0
0.271501 0.101562 0.0078125
0.273438 0.105722 0.0078125
0.273438 0.105722 0
0.271501 0.101562 0
0.275136 0.109375 0.0078125
0.273438 0.105727 0.0078125
0.273438 0.105727 0
0.275136 0.109375 0
0.279126 0.117188 0
0.279126 0.117188 0.0078125
0.27515 0.109375 0.0078125
0.27515 0.109375 0
0.279106 0.117188 0.0078125
0.28125 0.121058 0.0078125
0.28125 0.121058 0
0.279106 0.117188 0
0.283433 0.125 0.0078125
0.28125 0.12106 0.0078125
0.28125 0.12106 0
0.283433 0.125 0
0.283441 0.125 0
0.283441 0.125 0.0078125
0.28815 0.132812 0.0078125
0.28815 0.132812 0
0.25043 -0.015625 0.0078125
0.25043 -0.015625 0.015625
0.250066 -0.0078125 0.015625
0.250066 -0.0078125 0.0078125
0.25006 -0.0078125 0.0078125
0.25 -0.00377814 0.0078125
0.25 -0.00377814 0.015625
0.25006 -0.0078125 0.015625
0.25006 0.0078125 0.0078125
0.25 0.00377814 0.0078125
0.25 0.00377814 0.015625
0.25006 0.0078125 0.015625
0.25043 0.015625 0.0078125
0.25043 0.015625 0.015625
0.250066 0.0078125 0.015625
0.250066 0.0078125 0.0078125
0.251054 0.0234375 0.0078125
0.251054 0.0234375 0.015625
0.250434 0.015625 0.015625
0.250434 0.015625 0.0078125
0.251922 0.03125 0.0078125
0.251922 0.03125 0.015625
0.251054 0.0234375 0.015625
0.251054 0.0234375 0.0078125
0.253038 0.0390625 0.015625
0.253038 0.0390625 0.0078125
0.251922 0.03125 0.0078125
0.251922 0.03125 0.015625
0.254402 0.046875 0.015625
0.254402 0.046875 0.0078125
0.253038 0.0390625 0.0078125
0.253038 0.0390625 0.015625
0.254402 0.046875 0.0078125
0.254402 0.046875 0.015625
0.256014 0.0546875 0.015625
0.256014 0.0546875 0.0078125
0.256006 0.0546875 0.015625
0.257812 0.0622027 0.015625
0.257812 0.0622027 0.0078125
0.256006 0.0546875 0.0078125
0.257876 0.0625 0.015625
0.257812 0.0622366 0.015625
0.257812 0.0622366 0.0078125
0.257876 0.0625 0.0078125
0.260047 0.0703125 0.0078125
0.260047 0.0703125 0.015625
[...]
CELL_DATA 728
SCALARS c float
LOOKUP_TABLE default
-1.00197e+06
-1.00097e+06
-999968
-998968
-997968
-996968
-995968
-994968
-993968
-992968
-1968
-968
32
1032
2032
3032
4032
5032
6032
7032
998032
999032
1.00003e+06
1.00103e+06
1.00203e+06
1.00303e+06
1.00403e+06
1.00503e+06
1.00603e+06
1.00703e+06
1.99803e+06
1.99903e+06
2.00003e+06
2.00103e+06
2.00203e+06
2.00303e+06
2.00403e+06
2.00503e+06
2.00603e+06
2.00703e+06
-1.00197e+06
-1.00097e+06
-999968
-998968
-997968
-996968
-995968
-994968
-993968
-992968
-992967
-991967
-990967
-989967
-988967
-988966
-987966
-986966
-986965
-985965
-984965
-984964
-983964
-1968
-968
32
1032
2032
3032
4032
5032
6032
7032
7033
8033
9033
10033
11033
11034
12034
13034
13035
14035
15035
15036
16036
998032
999032
1.00003e+06
1.00103e+06
1.00203e+06
1.00303e+06
1.00403e+06
1.00503e+06
1.00603e+06
1.00703e+06
1.00703e+06
1.00803e+06
1.00903e+06
1.01003e+06
1.01103e+06
1.01103e+06
1.01203e+06
1.01303e+06
1.01304e+06
1.01404e+06
1.01504e+06
1.01504e+06
1.01604e+06
1.99803e+06
1.99903e+06
2.00003e+06
2.00103e+06
2.00203e+06
2.00303e+06
2.00403e+06
2.00503e+06
2.00603e+06
2.00703e+06
2.00703e+06
2.00803e+06
2.00903e+06
2.01003e+06
2.01103e+06
2.01103e+06
2.01203e+06
2.01303e+06
2.01304e+06
2.01404e+06
2.01504e+06
2.01504e+06
2.01604e+06
-984965
-984964
-983964
-982964
-982963
-981963
-981962
-980962
-980961
-979961
-978961
-978960
-977960
-977959
-976959
-976958
-975958
-975957
-975956
-974956
-974955
-973955
-973954
-972954
-972953
-972952
-971952
15035
15036
16036
17036
17037
18037
18038
19038
19039
20039
21039
21040
22040
22041
23041
23042
24042
24043
24044
25044
25045
26045
26046
27046
27047
27048
28048
1.01504e+06
1.01504e+06
1.01604e+06
1.01704e+06
1.01704e+06
1.01804e+06
1.01804e+06
1.01904e+06
1.01904e+06
1.02004e+06
1.02104e+06
1.02104e+06
1.02204e+06
1.02204e+06
1.02304e+06
1.02304e+06
1.02404e+06
1.02404e+06
1.02404e+06
1.02504e+06
1.02504e+06
1.02604e+06
1.02605e+06
1.02705e+06
1.02705e+06
1.02705e+06
1.02805e+06
2.01504e+06
2.01504e+06
2.01604e+06
2.01704e+06
2.01704e+06
2.01804e+06
2.01804e+06
2.01904e+06
2.01904e+06
2.02004e+06
2.02104e+06
2.02104e+06
2.02204e+06
2.02204e+06
2.02304e+06
2.02304e+06
2.02404e+06
2.02404e+06
2.02404e+06
2.02504e+06
2.02504e+06
2.02604e+06
2.02605e+06
2.02705e+06
2.02705e+06
2.02705e+06
2.02805e+06
-972953
-972952
-971952
-971951
-971950
-970950
-970949
-970948
-969948
-969947
-969946
-969945
-969944
-968944
-968943
-968942
-968941
-968940
-968939
-968938
-968937
-968936
27047
27048
28048
28049
28050
29050
29051
29052
30052
30053
30054
30055
30056
31056
31057
31058
31059
31060
31061
31062
31063
31064
1.02705e+06
1.02705e+06
1.02805e+06
1.02805e+06
1.02805e+06
1.02905e+06
1.02905e+06
1.02905e+06
1.03005e+06
1.03005e+06
1.03005e+06
1.03006e+06
1.03006e+06
1.03106e+06
1.03106e+06
1.03106e+06
1.03106e+06
1.03106e+06
1.03106e+06
1.03106e+06
1.03106e+06
1.03106e+06
2.02705e+06
2.02705e+06
2.02805e+06
2.02805e+06
2.02805e+06
2.02905e+06
2.02905e+06
2.02905e+06
2.03005e+06
2.03005e+06
2.03005e+06
2.03006e+06
2.03006e+06
2.03106e+06
2.03106e+06
2.03106e+06
2.03106e+06
2.03106e+06
2.03106e+06
2.03106e+06
2.03106e+06
2.03106e+06
-968944
-968943
-968942
-968941
-968940
-968939
-968938
-968937
-968936
31056
31057
31058
31059
31060
31061
31062
31063
31064
1.03106e+06
1.03106e+06
1.03106e+06
1.03106e+06
1.03106e+06
1.03106e+06
1.03106e+06
1.03106e+06
1.03106e+06
2.03106e+06
2.03106e+06
2.03106e+06
2.03106e+06
2.03106e+06
2.03106e+06
2.03106e+06
2.03106e+06
2.03106e+06
-972921
-972920
-971923
-971922
-971921
-970925
-970924
-970923
-969929
-969928
-969927
-969926
-969925
-968937
-968936
-968935
-968934
-968933
-968932
-968931
-968930
-968929
27079
27080
28077
28078
28079
29075
29076
29077
30071
30072
30073
30074
30075
31063
31064
31065
31066
31067
31068
31069
31070
31071
1.02708e+06
1.02708e+06
1.02808e+06
1.02808e+06
1.02808e+06
1.02908e+06
1.02908e+06
1.02908e+06
1.03007e+06
1.03007e+06
1.03007e+06
1.03007e+06
1.03008e+06
1.03106e+06
1.03106e+06
1.03106e+06
1.03107e+06
1.03107e+06
1.03107e+06
1.03107e+06
1.03107e+06
1.03107e+06
2.02708e+06
2.02708e+06
2.02808e+06
2.02808e+06
2.02808e+06
2.02908e+06
2.02908e+06
2.02908e+06
2.03007e+06
2.03007e+06
2.03007e+06
2.03007e+06
2.03008e+06
2.03106e+06
2.03106e+06
2.03106e+06
2.03107e+06
2.03107e+06
2.03107e+06
2.03107e+06
2.03107e+06
2.03107e+06
-968937
-968936
-968935
-968934
-968933
-968932
-968931
-968930
-968929
31063
31064
31065
31066
31067
31068
31069
31070
31071
1.03106e+06
1.03106e+06
1.03106e+06
1.03107e+06
1.03107e+06
1.03107e+06
1.03107e+06
1.03107e+06
1.03107e+06
2.03106e+06
2.03106e+06
2.03106e+06
2.03107e+06
2.03107e+06
2.03107e+06
2.03107e+06
2.03107e+06
2.03107e+06
-1.0019e+06
-1.0009e+06
-999905
-998905
-997905
-996905
-995905
-994905
-993905
-992906
-992905
-991906
-990906
-989906
-988907
-988906
-987907
-986908
-986907
-985908
-984909
-984908
-983909
-1905
-905
95
1095
2095
3095
4095
5095
6095
7094
7095
8094
9094
10094
11093
11094
12093
13092
13093
14092
15091
15092
16091
998095
999095
1.0001e+06
1.0011e+06
1.0021e+06
1.0031e+06
1.0041e+06
1.0051e+06
1.0061e+06
1.00709e+06
1.0071e+06
1.00809e+06
1.00909e+06
1.01009e+06
1.01109e+06
1.01109e+06
1.01209e+06
1.01309e+06
1.01309e+06
1.01409e+06
1.01509e+06
1.01509e+06
1.01609e+06
1.9981e+06
1.9991e+06
2.0001e+06
2.0011e+06
2.0021e+06
2.0031e+06
2.0041e+06
2.0051e+06
2.0061e+06
2.00709e+06
2.0071e+06
2.00809e+06
2.00909e+06
2.01009e+06
2.01109e+06
2.01109e+06
2.01209e+06
2.01309e+06
2.01309e+06
2.01409e+06
2.01509e+06
2.01509e+06
2.01609e+06
-984909
-984908
-983909
-982910
-982909
-981911
-981910
-980912
-980911
-979912
-978913
-978912
-977914
-977913
-976915
-976914
-975917
-975916
-975915
-974918
-974917
-973919
-973918
-972921
-972920
-972919
-971921
15091
15092
16091
17090
17091
18089
18090
19088
19089
20088
21087
21088
22086
22087
23085
23086
24083
24084
24085
25082
25083
26081
26082
27079
27080
27081
28079
1.01509e+06
1.01509e+06
1.01609e+06
1.01709e+06
1.01709e+06
1.01809e+06
1.01809e+06
1.01909e+06
1.01909e+06
1.02009e+06
1.02109e+06
1.02109e+06
1.02209e+06
1.02209e+06
1.02308e+06
1.02309e+06
1.02408e+06
1.02408e+06
1.02408e+06
1.02508e+06
1.02508e+06
1.02608e+06
1.02608e+06
1.02708e+06
1.02708e+06
1.02708e+06
1.02808e+06
2.01509e+06
2.01509e+06
2.01609e+06
2.01709e+06
2.01709e+06
2.01809e+06
2.01809e+06
2.01909e+06
2.01909e+06
2.02009e+06
2.02109e+06
2.02109e+06
2.02209e+06
2.02209e+06
2.02308e+06
2.02309e+06
2.02408e+06
2.02408e+06
2.02408e+06
2.02508e+06
2.02508e+06
2.02608e+06
2.02608e+06
2.02708e+06
2.02708e+06
2.02708e+06
2.02808e+06
-1.0019e+06
-1.0009e+06
-999905
-998905
-997905
-996905
-995905
-994905
-993905
-992905
-1905
-905
95
1095
2095
3095
4095
5095
6095
7095
998095
999095
1.0001e+06
1.0011e+06
1.0021e+06
1.0031e+06
1.0041e+06
1.0051e+06
1.0061e+06
1.0071e+06
1.9981e+06
1.9991e+06
2.0001e+06
2.0011e+06
2.0021e+06
2.0031e+06
2.0041e+06
2.0051e+06
2.0061e+06
2.0071e+06
