# vtk DataFile Version 2.0
Reconstructed linear interface
ASCII
DATASET POLYDATA
POINTS 2624 float
0.803644 -0.0078125 -0.0078125
0.803644 -0.0078125 0
0.803652 -0.015625 0
0.803652 -0.015625 -0.0078125
0.803635 0 -0.0078125
0.803635 0 0
0.80364 -0.0078125 0
0.80364 -0.0078125 -0.0078125
0.803635 0 -0.0078125
0.803635 0 0
0.80364 0.0078125 0
0.80364 0.0078125 -0.0078125
0.803644 0.0078125 -0.0078125
0.803644 0.0078125 0
0.803652 0.015625 0
0.803652 0.015625 -0.0078125
0.803649 0.015625 -0.0078125
0.803649 0.015625 0
0.803659 0.0234375 0
0.803659 0.0234375 -0.0078125
0.803661 0.0234375 0
0.803661 0.0234375 -0.0078125
0.803676 0.03125 -0.0078125
0.803676 0.03125 0
0.803675 0.03125 0
0.803675 0.03125 -0.0078125
0.803694 0.0390625 -0.0078125
0.803694 0.0390625 0
0.803694 0.0390625 -0.0078125
0.803694 0.0390625 0
0.803719 0.046875 0
0.803719 0.046875 -0.0078125
0.803718 0.046875 -0.0078125
0.803718 0.046875 0
0.803749 0.0546875 0
0.803749 0.0546875 -0.0078125
0.803749 0.0546875 -0.0078125
0.803749 0.0546875 0
0.803787 0.0625 0
0.803787 0.0625 -0.0078125
0.803787 0.0625 0
0.803787 0.0625 -0.0078125
0.803835 0.0703125 -0.0078125
0.803835 0.0703125 0
0.803834 0.0703125 -0.0078125
0.803834 0.0703125 0
0.803893 0.078125 0
0.803893 0.078125 -0.0078125
0.803892 0.078125 -0.0078125
0.803892 0.078125 0
0.803964 0.0859375 0
0.803964 0.0859375 -0.0078125
0.803963 0.0859375 -0.0078125
0.803963 0.0859375 0
0.80405 0.09375 0
0.80405 0.09375 -0.0078125
0.804049 0.09375 -0.0078125
0.804049 0.09375 0
0.804154 0.101562 0
0.804154 0.101562 -0.0078125
0.804153 0.101562 -0.0078125
0.804153 0.101562 0
0.804278 0.109375 0
0.804278 0.109375 -0.0078125
0.804277 0.109375 -0.0078125
0.804277 0.109375 0
0.804425 0.117188 0
0.804425 0.117188 -0.0078125
0.804424 0.117188 -0.0078125
0.804424 0.117188 0
0.804599 0.125 0
0.804599 0.125 -0.0078125
0.804598 0.125 0
0.804688 0.128392 0
0.804688 0.128392 -0.0078125
0.804598 0.125 -0.0078125
0.804803 0.132812 0
0.804688 0.128425 0
0.804688 0.128425 -0.0078125
0.804803 0.132812 -0.0078125
0.803644 -0.0078125 0
0.803644 -0.0078125 0.0078125
0.803652 -0.015625 0.0078125
0.803652 -0.015625 0
0.803635 0 0
0.803635 0 0.0078125
0.80364 -0.0078125 0.0078125
0.80364 -0.0078125 0
0.803635 0 0
0.803635 0 0.0078125
0.80364 0.0078125 0.0078125
0.80364 0.0078125 0
0.803644 0.0078125 0
0.803644 0.0078125 0.0078125
0.803652 0.015625 0.0078125
0.803652 0.015625 0
0.803649 0.015625 0
0.803649 0.015625 0.0078125
0.803659 0.0234375 0.0078125
0.803659 0.0234375 0
0.803661 0.0234375 0.0078125
0.803661 0.0234375 0
0.803676 0.03125 0
0.803676 0.03125 0.0078125
0.803675 0.03125 0.0078125
0.803675 0.03125 0
0.803694 0.0390625 0
0.803694 0.0390625 0.0078125
0.803694 0.0390625 0
0.803694 0.0390625 0.0078125
0.803719 0.046875 0.0078125
0.803719 0.046875 0
0.803718 0.046875 0
0.803718 0.046875 0.0078125
0.803749 0.0546875 0.0078125
0.803749 0.0546875 0
0.803749 0.0546875 0
0.803749 0.0546875 0.0078125
0.803787 0.0625 0.0078125
0.803787 0.0625 0
0.803787 0.0625 0.0078125
0.803787 0.0625 0
0.803835 0.0703125 0
0.803835 0.0703125 0.0078125
0.803834 0.0703125 0
0.803834 0.0703125 0.0078125
0.803893 0.078125 0.0078125
0.803893 0.078125 0
0.803892 0.078125 0
0.803892 0.078125 0.0078125
0.803964 0.0859375 0.0078125
0.803964 0.0859375 0
0.803963 0.0859375 0
0.803963 0.0859375 0.0078125
0.80405 0.09375 0.0078125
0.80405 0.09375 0
0.804049 0.09375 0
0.804049 0.09375 0.0078125
0.804154 0.101562 0.0078125
0.804154 0.101562 0
0.804153 0.101562 0
0.804153 0.101562 0.0078125
0.804278 0.109375 0.0078125
0.804278 0.109375 0
0.804277 0.109375 0
0.804277 0.109375 0.0078125
0.804425 0.117188 0.0078125
0.804425 0.117188 0
0.804424 0.117188 0
0.804424 0.117188 0.0078125
0.804599 0.125 0.0078125
0.804599 0.125 0
0.804598 0.125 0.0078125
0.804688 0.128392 0.0078125
0.804688 0.128392 0
0.804598 0.125 0
0.804803 0.132812 0.0078125
0.804688 0.128425 0.0078125
0.804688 0.128425 0
0.804803 0.132812 0
0.803644 -0.0078125 0.0078125
0.803644 -0.0078125 0.015625
0.803652 -0.015625 0.015625
0.803652 -0.015625 0.0078125
0.803635 0 0.0078125
0.803635 0 0.015625
0.80364 -0.0078125 0.015625
0.80364 -0.0078125 0.0078125
0.803635 0 0.0078125
0.803635 0 0.015625
0.80364 0.0078125 0.015625
0.80364 0.0078125 0.0078125
0.803644 0.0078125 0.0078125
0.803644 0.0078125 0.015625
0.803652 0.015625 0.015625
0.803652 0.015625 0.0078125
0.803649 0.015625 0.0078125
0.803649 0.015625 0.015625
0.803659 0.0234375 0.015625
0.803659 0.0234375 0.0078125
0.803661 0.0234375 0.015625
0.803661 0.0234375 0.0078125
0.803676 0.03125 0.0078125
0.803676 0.03125 0.015625
0.803675 0.03125 0.015625
0.803675 0.03125 0.0078125
0.803694 0.0390625 0.0078125
0.803694 0.0390625 0.015625
0.803694 0.0390625 0.0078125
0.803694 0.0390625 0.015625
0.803719 0.046875 0.015625
0.803719 0.046875 0.0078125
0.803718 0.046875 0.0078125
0.803718 0.046875 0.015625
0.803749 0.0546875 0.015625
0.803749 0.0546875 0.0078125
0.803749 0.0546875 0.0078125
0.803749 0.0546875 0.015625
0.803787 0.0625 0.015625
0.803787 0.0625 0.0078125
0.803787 0.0625 0.015625
0.803787 0.0625 0.0078125
0.803835 0.0703125 0.0078125
0.803835 0.0703125 0.015625
0.803834 0.0703125 0.0078125
0.803834 0.0703125 0.015625
0.803893 0.078125 0.015625
0.803893 0.078125 0.0078125
0.803892 0.078125 0.0078125
0.803892 0.078125 0.015625
0.803964 0.0859375 0.015625
0.803964 0.0859375 0.0078125
0.803963 0.0859375 0.0078125
0.803963 0.0859375 0.015625
0.80405 0.09375 0.015625
0.80405 0.09375 0.0078125
0.804049 0.09375 0.0078125
0.804049 0.09375 0.015625
0.804154 0.101562 0.015625
0.804154 0.101562 0.0078125
0.804153 0.101562 0.0078125
0.804153 0.101562 0.015625
0.804278 0.109375 0.015625
0.804278 0.109375 0.0078125
0.804277 0.109375 0.0078125
0.804277 0.109375 0.015625
0.804425 0.117188 0.015625
0.804425 0.117188 0.0078125
0.804424 0.117188 0.0078125
0.804424 0.117188 0.015625
0.804599 0.125 0.015625
0.804599 0.125 0.0078125
0.804598 0.125 0.015625
0.804688 0.128392 0.015625
0.804688 0.128392 0.0078125
0.804598 0.125 0.0078125
0.804803 0.132812 0.015625
0.804688 0.128425 0.015625
0.804688 0.128425 0.0078125
0.804803 0.132812 0.0078125
0.803644 -0.0078125 0.015625
0.803644 -0.0078125 0.0234375
0.803652 -0.015625 0.0234375
0.803652 -0.015625 0.015625
0.803635 0 0.015625
0.803635 0 0.0234375
0.80364 -0.0078125 0.0234375
0.80364 -0.0078125 0.015625
0.803635 0 0.015625
0.803635 0 0.0234375
0.80364 0.0078125 0.0234375
0.80364 0.0078125 0.015625
0.803644 0.0078125 0.015625
0.803644 0.0078125 0.0234375
0.803652 0.015625 0.0234375
0.803652 0.015625 0.015625
0.803649 0.015625 0.015625
0.803649 0.015625 0.0234375
0.803659 0.0234375 0.0234375
0.803659 0.0234375 0.015625
0.803661 0.0234375 0.0234375
0.803661 0.0234375 0.015625
0.803676 0.03125 0.015625
0.803676 0.03125 0.0234375
0.803675 0.03125 0.0234375
0.803675 0.03125 0.015625
0.803694 0.0390625 0.015625
0.803694 0.0390625 0.0234375
0.803694 0.0390625 0.015625
0.803694 0.0390625 0.0234375
0.803719 0.046875 0.0234375
0.803719 0.046875 0.015625
0.803718 0.046875 0.015625
0.803718 0.046875 0.0234375
0.803749 0.0546875 0.0234375
0.803749 0.0546875 0.015625
0.803749 0.0546875 0.015625
0.803749 0.0546875 0.0234375
0.803787 0.0625 0.0234375
0.803787 0.0625 0.015625
0.803787 0.0625 0.0234375
0.803787 0.0625 0.015625
0.803835 0.0703125 0.015625
0.803835 0.0703125 0.0234375
0.803834 0.0703125 0.015625
0.803834 0.0703125 0.0234375
0.803893 0.078125 0.0234375
0.803893 0.078125 0.015625
0.803892 0.078125 0.015625
0.803892 0.078125 0.0234375
0.803964 0.0859375 0.0234375
0.803964 0.0859375 0.015625
0.803963 0.0859375 0.015625
0.803963 0.0859375 0.0234375
0.80405 0.09375 0.0234375
0.80405 0.09375 0.015625
0.804049 0.09375 0.015625
0.804049 0.09375 0.0234375
0.804154 0.101562 0.0234375
0.804154 0.101562 0.015625
0.804153 0.101562 0.015625
0.804153 0.101562 0.0234375
0.804278 0.109375 0.0234375
0.804278 0.109375 0.015625
0.804277 0.109375 0.015625
0.804277 0.109375 0.0234375
0.804425 0.117188 0.0234375
0.804425 0.117188 0.015625
0.804424 0.117188 0.015625
0.804424 0.117188 0.0234375
0.804599 0.125 0.0234375
0.804599 0.125 0.015625
0.804598 0.125 0.0234375
0.804688 0.128392 0.0234375
0.804688 0.128392 0.015625
0.804598 0.125 0.015625
0.804803 0.132812 0.0234375
0.804688 0.128425 0.0234375
0.804688 0.128425 0.015625
0.804803 0.132812 0.015625
0.804424 0.117188 -0.0078125
0.804424 0.117188 0
0.804599 0.125 0
0.804599 0.125 -0.0078125
0.804598 0.125 0
0.804688 0.128392 0
0.804688 0.128392 -0.0078125
0.804598 0.125 -0.0078125
0.804803 0.132812 0
0.804688 0.128425 0
0.804688 0.128425 -0.0078125
0.804803 0.132812 -0.0078125
0.805042 0.140625 -0.0078125
0.805042 0.140625 0
0.804802 0.132812 0
0.804802 0.132812 -0.0078125
0.805319 0.148438 -0.0078125
0.805319 0.148438 0
0.805041 0.140625 0
0.805041 0.140625 -0.0078125
0.805641 0.15625 -0.0078125
0.805641 0.15625 0
0.805318 0.148438 0
0.805318 0.148438 -0.0078125
0.806011 0.164062 -0.0078125
0.806011 0.164062 0
0.805639 0.15625 0
0.805639 0.15625 -0.0078125
0.806436 0.171875 -0.0078125
0.806436 0.171875 0
0.806009 0.164062 0
0.806009 0.164062 -0.0078125
0.806922 0.179688 -0.0078125
0.806922 0.179688 0
0.806434 0.171875 0
0.806434 0.171875 -0.0078125
0.807476 0.1875 -0.0078125
0.807476 0.1875 0
0.80692 0.179688 0
0.80692 0.179688 -0.0078125
0.808106 0.195312 -0.0078125
0.808106 0.195312 0
0.807474 0.1875 0
0.807474 0.1875 -0.0078125
0.80882 0.203125 -0.0078125
0.80882 0.203125 0
0.808104 0.195312 0
0.808104 0.195312 -0.0078125
0.808818 0.203125 -0.0078125
0.808818 0.203125 0
0.809628 0.210938 0
0.809628 0.210938 -0.0078125
0.809625 0.210938 -0.0078125
0.809625 0.210938 0
0.81054 0.21875 0
0.81054 0.21875 -0.0078125
0.810537 0.21875 -0.0078125
0.810537 0.21875 0
0.81157 0.226562 0
0.81157 0.226562 -0.0078125
0.811564 0.226562 0
0.8125 0.232828 0
0.8125 0.232828 -0.0078125
0.811564 0.226562 -0.0078125
0.812731 0.234375 0
0.8125 0.232828 0
0.8125 0.232828 -0.0078125
0.812731 0.234375 -0.0078125
0.81405 0.242188 -0.0078125
0.81405 0.242188 0
0.812727 0.234375 0
0.812727 0.234375 -0.0078125
[...]
CELL_DATA 656
SCALARS c float
LOOKUP_TABLE default
-1.0019e+06
-1.0009e+06
-999898
-998898
-997898
-996898
-995898
-994898
-993898
-992898
-991898
-990898
-989898
-988898
-987898
-986898
-985898
-984898
-983898
-983897
-1898
-898
102
1102
2102
3102
4102
5102
6102
7102
8102
9102
10102
11102
12102
13102
14102
15102
16102
16103
998102
999102
1.0001e+06
1.0011e+06
1.0021e+06
1.0031e+06
1.0041e+06
1.0051e+06
1.0061e+06
1.0071e+06
1.0081e+06
1.0091e+06
1.0101e+06
1.0111e+06
1.0121e+06
1.0131e+06
1.0141e+06
1.0151e+06
1.0161e+06
1.0161e+06
1.9981e+06
1.9991e+06
2.0001e+06
2.0011e+06
2.0021e+06
2.0031e+06
2.0041e+06
2.0051e+06
2.0061e+06
2.0071e+06
2.0081e+06
2.0091e+06
2.0101e+06
2.0111e+06
2.0121e+06
2.0131e+06
2.0141e+06
2.0151e+06
2.0161e+06
2.0161e+06
-984898
-983898
-983897
-982897
-981897
-980897
-979897
-978897
-977897
-976897
-975897
-974897
-973897
-972897
-971897
-970897
-970896
-969896
-968896
-967896
15102
16102
16103
17103
18103
19103
20103
21103
22103
23103
24103
25103
26103
27103
28103
29103
29104
30104
31104
32104
1.0151e+06
1.0161e+06
1.0161e+06
1.0171e+06
1.0181e+06
1.0191e+06
1.0201e+06
1.0211e+06
1.0221e+06
1.0231e+06
1.0241e+06
1.0251e+06
1.0261e+06
1.0271e+06
1.0281e+06
1.0291e+06
1.0291e+06
1.0301e+06
1.0311e+06
1.0321e+06
2.0151e+06
2.0161e+06
2.0161e+06
2.0171e+06
2.0181e+06
2.0191e+06
2.0201e+06
2.0211e+06
2.0221e+06
2.0231e+06
2.0241e+06
2.0251e+06
2.0261e+06
2.0271e+06
2.0281e+06
2.0291e+06
2.0291e+06
2.0301e+06
2.0311e+06
2.0321e+06
-968896
-967896
-966896
-965896
-965895
-964895
-963895
-962895
-962894
-961894
-960894
-960893
-959893
-958893
-958892
-957892
-957891
-957890
-956890
-956889
-956888
-955888
31104
32104
33104
34104
34105
35105
36105
37105
37106
38106
39106
39107
40107
41107
41108
42108
42109
42110
43110
43111
43112
44112
1.0311e+06
1.0321e+06
1.0331e+06
1.0341e+06
1.0341e+06
1.0351e+06
1.0361e+06
1.0371e+06
1.03711e+06
1.03811e+06
1.03911e+06
1.03911e+06
1.04011e+06
1.04111e+06
1.04111e+06
1.04211e+06
1.04211e+06
1.04211e+06
1.04311e+06
1.04311e+06
1.04311e+06
1.04411e+06
2.0311e+06
2.0321e+06
2.0331e+06
2.0341e+06
2.0341e+06
2.0351e+06
2.0361e+06
2.0371e+06
2.03711e+06
2.03811e+06
2.03911e+06
2.03911e+06
2.04011e+06
2.04111e+06
2.04111e+06
2.04211e+06
2.04211e+06
2.04211e+06
2.04311e+06
2.04311e+06
2.04311e+06
2.04411e+06
-962872
-961873
-961872
-960874
-960873
-959876
-959875
-959874
-958878
-958877
-958876
-957880
-957879
-957878
-956889
-956888
-956883
-956882
-956881
-956880
-955888
-955887
-955886
-955885
-955884
-955883
37128
38127
38128
39126
39127
40124
40125
40126
41122
41123
41124
42120
42121
42122
43111
43112
43117
43118
43119
43120
44112
44113
44114
44115
44116
44117
1.03713e+06
1.03813e+06
1.03813e+06
1.03913e+06
1.03913e+06
1.04012e+06
1.04012e+06
1.04013e+06
1.04112e+06
1.04112e+06
1.04112e+06
1.04212e+06
1.04212e+06
1.04212e+06
1.04311e+06
1.04311e+06
1.04312e+06
1.04312e+06
1.04312e+06
1.04312e+06
1.04411e+06
1.04411e+06
1.04411e+06
1.04412e+06
1.04412e+06
1.04412e+06
2.03713e+06
2.03813e+06
2.03813e+06
2.03913e+06
2.03913e+06
2.04012e+06
2.04012e+06
2.04013e+06
2.04112e+06
2.04112e+06
2.04112e+06
2.04212e+06
2.04212e+06
2.04212e+06
2.04311e+06
2.04311e+06
2.04312e+06
2.04312e+06
2.04312e+06
2.04312e+06
2.04411e+06
2.04411e+06
2.04411e+06
2.04412e+06
2.04412e+06
2.04412e+06
-980856
-979856
-978857
-978856
-977858
-977857
-976858
-975859
-975858
-974860
-974859
-973860
-972861
-972860
-971862
-971861
-970863
-970862
-969864
-969863
-968865
-968864
-967866
-967865
19144
20144
21143
21144
22142
22143
23142
24141
24142
25140
25141
26140
27139
27140
28138
28139
29137
29138
30136
30137
31135
31136
32134
32135
1.01914e+06
1.02014e+06
1.02114e+06
1.02114e+06
1.02214e+06
1.02214e+06
1.02314e+06
1.02414e+06
1.02414e+06
1.02514e+06
1.02514e+06
1.02614e+06
1.02714e+06
1.02714e+06
1.02814e+06
1.02814e+06
1.02914e+06
1.02914e+06
1.03014e+06
1.03014e+06
1.03114e+06
1.03114e+06
1.03213e+06
1.03214e+06
2.01914e+06
2.02014e+06
2.02114e+06
2.02114e+06
2.02214e+06
2.02214e+06
2.02314e+06
2.02414e+06
2.02414e+06
2.02514e+06
2.02514e+06
2.02614e+06
2.02714e+06
2.02714e+06
2.02814e+06
2.02814e+06
2.02914e+06
2.02914e+06
2.03014e+06
2.03014e+06
2.03114e+06
2.03114e+06
2.03213e+06
2.03214e+06
-968865
-968864
-967866
-967865
-966867
-966866
-965868
-965867
-964869
-964868
-963870
-963869
-962872
-962871
-962870
-961873
-961872
-960873
31135
31136
32134
32135
33133
33134
34132
34133
35131
35132
36130
36131
37128
37129
37130
38127
38128
39127
1.03114e+06
1.03114e+06
1.03213e+06
1.03214e+06
1.03313e+06
1.03313e+06
1.03413e+06
1.03413e+06
1.03513e+06
1.03513e+06
1.03613e+06
1.03613e+06
1.03713e+06
1.03713e+06
1.03713e+06
1.03813e+06
1.03813e+06
1.03913e+06
2.03114e+06
2.03114e+06
2.03213e+06
2.03214e+06
2.03313e+06
2.03313e+06
2.03413e+06
2.03413e+06
2.03513e+06
2.03513e+06
2.03613e+06
2.03613e+06
2.03713e+06
2.03713e+06
2.03713e+06
2.03813e+06
2.03813e+06
2.03913e+06
-1.00185e+06
-1.00085e+06
-999851
-998851
-997851
-996851
-995851
-994851
-993851
-992851
-991852
-991851
-990852
-989852
-988852
-987853
-987852
-986853
-985853
-984854
-984853
-983854
-1851
-851
149
1149
2149
3149
4149
5149
6149
7149
8148
8149
9148
10148
11148
12147
12148
13147
14147
15146
15147
16146
998149
999149
1.00015e+06
1.00115e+06
1.00215e+06
1.00315e+06
1.00415e+06
1.00515e+06
1.00615e+06
1.00715e+06
1.00815e+06
1.00815e+06
1.00915e+06
1.01015e+06
1.01115e+06
1.01215e+06
1.01215e+06
1.01315e+06
1.01415e+06
1.01515e+06
1.01515e+06
1.01615e+06
1.99815e+06
1.99915e+06
2.00015e+06
2.00115e+06
2.00215e+06
2.00315e+06
2.00415e+06
2.00515e+06
2.00615e+06
2.00715e+06
2.00815e+06
2.00815e+06
2.00915e+06
2.01015e+06
2.01115e+06
2.01215e+06
2.01215e+06
2.01315e+06
2.01415e+06
2.01515e+06
2.01515e+06
2.01615e+06
-984854
-984853
-983854
-982855
-982854
-981855
-980856
-980855
-979856
-978857
-978856
-977857
15146
15147
16146
17145
17146
18145
19144
19145
20144
21143
21144
22143
1.01515e+06
1.01515e+06
1.01615e+06
1.01714e+06
1.01715e+06
1.01814e+06
1.01914e+06
1.01914e+06
1.02014e+06
1.02114e+06
1.02114e+06
1.02214e+06
2.01515e+06
2.01515e+06
2.01615e+06
2.01714e+06
2.01715e+06
2.01814e+06
2.01914e+06
2.01914e+06
2.02014e+06
2.02114e+06
2.02114e+06
2.02214e+06
