# vtk DataFile Version 2.0
Reconstructed linear interface
ASCII
DATASET POLYDATA
POINTS 2624 float
0.696061 -0.0078125 0
0.696061 -0.0078125 -0.0078125
0.695995 -0.015625 -0.0078125
0.695995 -0.015625 0
0.696077 0 -0.0078125
0.696077 0 0
0.696058 -0.0078125 0
0.696058 -0.0078125 -0.0078125
0.696077 0 -0.0078125
0.696077 0 0
0.696058 0.0078125 0
0.696058 0.0078125 -0.0078125
0.696061 0.0078125 0
0.696061 0.0078125 -0.0078125
0.695995 0.015625 -0.0078125
0.695995 0.015625 0
0.695991 0.015625 0
0.695991 0.015625 -0.0078125
0.695877 0.0234375 -0.0078125
0.695877 0.0234375 0
0.695879 0.0234375 -0.0078125
0.695879 0.0234375 0
0.69572 0.03125 0
0.69572 0.03125 -0.0078125
0.695719 0.03125 -0.0078125
0.695719 0.03125 0
0.695514 0.0390625 0
0.695514 0.0390625 -0.0078125
0.695266 0.046875 0
0.695312 0.0454138 0
0.695312 0.0454138 -0.0078125
0.695266 0.046875 -0.0078125
0.695514 0.0390625 0
0.695312 0.0454172 0
0.695312 0.0454172 -0.0078125
0.695514 0.0390625 -0.0078125
0.694975 0.0546875 -0.0078125
0.694975 0.0546875 0
0.695266 0.046875 0
0.695266 0.046875 -0.0078125
0.694643 0.0625 0
0.694643 0.0625 -0.0078125
0.694975 0.0546875 -0.0078125
0.694975 0.0546875 0
0.694272 0.0703125 -0.0078125
0.694272 0.0703125 0
0.694642 0.0625 0
0.694642 0.0625 -0.0078125
0.693864 0.078125 -0.0078125
0.693864 0.078125 0
0.694271 0.0703125 0
0.694271 0.0703125 -0.0078125
0.693421 0.0859375 0
0.693421 0.0859375 -0.0078125
0.693863 0.078125 -0.0078125
0.693863 0.078125 0
0.692947 0.09375 -0.0078125
0.692947 0.09375 0
0.69342 0.0859375 0
0.69342 0.0859375 -0.0078125
0.692445 0.101562 0
0.692445 0.101562 -0.0078125
0.692946 0.09375 -0.0078125
0.692946 0.09375 0
0.691918 0.109375 0
0.691918 0.109375 -0.0078125
0.692444 0.101562 -0.0078125
0.692444 0.101562 0
0.691371 0.117188 0
0.691371 0.117188 -0.0078125
0.691917 0.109375 -0.0078125
0.691917 0.109375 0
0.69137 0.117188 -0.0078125
0.69137 0.117188 0
0.690808 0.125 0
0.690808 0.125 -0.0078125
0.690806 0.125 0
0.690806 0.125 -0.0078125
0.690233 0.132812 -0.0078125
0.690233 0.132812 0
0.696061 -0.0078125 0.0078125
0.696061 -0.0078125 0
0.695995 -0.015625 0
0.695995 -0.015625 0.0078125
0.696077 0 0
0.696077 0 0.0078125
0.696058 -0.0078125 0.0078125
0.696058 -0.0078125 0
0.696077 0 0
0.696077 0 0.0078125
0.696058 0.0078125 0.0078125
0.696058 0.0078125 0
0.696061 0.0078125 0.0078125
0.696061 0.0078125 0
0.695995 0.015625 0
0.695995 0.015625 0.0078125
0.695991 0.015625 0.0078125
0.695991 0.015625 0
0.695877 0.0234375 0
0.695877 0.0234375 0.0078125
0.695879 0.0234375 0
0.695879 0.0234375 0.0078125
0.69572 0.03125 0.0078125
0.69572 0.03125 0
0.695719 0.03125 0
0.695719 0.03125 0.0078125
0.695514 0.0390625 0.0078125
0.695514 0.0390625 0
0.695266 0.046875 0.0078125
0.695312 0.0454138 0.0078125
0.695312 0.0454138 0
0.695266 0.046875 0
0.695514 0.0390625 0.0078125
0.695312 0.0454172 0.0078125
0.695312 0.0454172 0
0.695514 0.0390625 0
0.694975 0.0546875 0
0.694975 0.0546875 0.0078125
0.695266 0.046875 0.0078125
0.695266 0.046875 0
0.694643 0.0625 0.0078125
0.694643 0.0625 0
0.694975 0.0546875 0
0.694975 0.0546875 0.0078125
0.694272 0.0703125 0
0.694272 0.0703125 0.0078125
0.694642 0.0625 0.0078125
0.694642 0.0625 0
0.693864 0.078125 0
0.693864 0.078125 0.0078125
0.694271 0.0703125 0.0078125
0.694271 0.0703125 0
0.693421 0.0859375 0.0078125
0.693421 0.0859375 0
0.693863 0.078125 0
0.693863 0.078125 0.0078125
0.692947 0.09375 0
0.692947 0.09375 0.0078125
0.69342 0.0859375 0.0078125
0.69342 0.0859375 0
0.692445 0.101562 0.0078125
0.692445 0.101562 0
0.692946 0.09375 0
0.692946 0.09375 0.0078125
0.691918 0.109375 0.0078125
0.691918 0.109375 0
0.692444 0.101562 0
0.692444 0.101562 0.0078125
0.691371 0.117188 0.0078125
0.691371 0.117188 0
0.691917 0.109375 0
0.691917 0.109375 0.0078125
0.69137 0.117188 0
0.69137 0.117188 0.0078125
0.690808 0.125 0.0078125
0.690808 0.125 0
0.690806 0.125 0.0078125
0.690806 0.125 0
0.690233 0.132812 0
0.690233 0.132812 0.0078125
0.696061 -0.0078125 0.015625
0.696061 -0.0078125 0.0078125
0.695995 -0.015625 0.0078125
0.695995 -0.015625 0.015625
0.696077 0 0.0078125
0.696077 0 0.015625
0.696058 -0.0078125 0.015625
0.696058 -0.0078125 0.0078125
0.696077 0 0.0078125
0.696077 0 0.015625
0.696058 0.0078125 0.015625
0.696058 0.0078125 0.0078125
0.696061 0.0078125 0.015625
0.696061 0.0078125 0.0078125
0.695995 0.015625 0.0078125
0.695995 0.015625 0.015625
0.695991 0.015625 0.015625
0.695991 0.015625 0.0078125
0.695877 0.0234375 0.0078125
0.695877 0.0234375 0.015625
0.695879 0.0234375 0.0078125
0.695879 0.0234375 0.015625
0.69572 0.03125 0.015625
0.69572 0.03125 0.0078125
0.695719 0.03125 0.0078125
0.695719 0.03125 0.015625
0.695514 0.0390625 0.015625
0.695514 0.0390625 0.0078125
0.695266 0.046875 0.015625
0.695312 0.0454138 0.015625
0.695312 0.0454138 0.0078125
0.695266 0.046875 0.0078125
0.695514 0.0390625 0.015625
0.695312 0.0454172 0.015625
0.695312 0.0454172 0.0078125
0.695514 0.0390625 0.0078125
0.694975 0.0546875 0.0078125
0.694975 0.0546875 0.015625
0.695266 0.046875 0.015625
0.695266 0.046875 0.0078125
0.694643 0.0625 0.015625
0.694643 0.0625 0.0078125
0.694975 0.0546875 0.0078125
0.694975 0.0546875 0.015625
0.694272 0.0703125 0.0078125
0.694272 0.0703125 0.015625
0.694642 0.0625 0.015625
0.694642 0.0625 0.0078125
0.693864 0.078125 0.0078125
0.693864 0.078125 0.015625
0.694271 0.0703125 0.015625
0.694271 0.0703125 0.0078125
0.693421 0.0859375 0.015625
0.693421 0.0859375 0.0078125
0.693863 0.078125 0.0078125
0.693863 0.078125 0.015625
0.692947 0.09375 0.0078125
0.692947 0.09375 0.015625
0.69342 0.0859375 0.015625
0.69342 0.0859375 0.0078125
0.692445 0.101562 0.015625
0.692445 0.101562 0.0078125
0.692946 0.09375 0.0078125
0.692946 0.09375 0.015625
0.691918 0.109375 0.015625
0.691918 0.109375 0.0078125
0.692444 0.101562 0.0078125
0.692444 0.101562 0.015625
0.691371 0.117188 0.015625
0.691371 0.117188 0.0078125
0.691917 0.109375 0.0078125
0.691917 0.109375 0.015625
0.69137 0.117188 0.0078125
0.69137 0.117188 0.015625
0.690808 0.125 0.015625
0.690808 0.125 0.0078125
0.690806 0.125 0.015625
0.690806 0.125 0.0078125
0.690233 0.132812 0.0078125
0.690233 0.132812 0.015625
0.696061 -0.0078125 0.0234375
0.696061 -0.0078125 0.015625
0.695995 -0.015625 0.015625
0.695995 -0.015625 0.0234375
0.696077 0 0.015625
0.696077 0 0.0234375
0.696058 -0.0078125 0.0234375
0.696058 -0.0078125 0.015625
0.696077 0 0.015625
0.696077 0 0.0234375
0.696058 0.0078125 0.0234375
0.696058 0.0078125 0.015625
0.696061 0.0078125 0.0234375
0.696061 0.0078125 0.015625
0.695995 0.015625 0.015625
0.695995 0.015625 0.0234375
0.695991 0.015625 0.0234375
0.695991 0.015625 0.015625
0.695877 0.0234375 0.015625
0.695877 0.0234375 0.0234375
0.695879 0.0234375 0.015625
0.695879 0.0234375 0.0234375
0.69572 0.03125 0.0234375
0.69572 0.03125 0.015625
0.695719 0.03125 0.015625
0.695719 0.03125 0.0234375
0.695514 0.0390625 0.0234375
0.695514 0.0390625 0.015625
0.695266 0.046875 0.0234375
0.695312 0.0454138 0.0234375
0.695312 0.0454138 0.015625
0.695266 0.046875 0.015625
0.695514 0.0390625 0.0234375
0.695312 0.0454172 0.0234375
0.695312 0.0454172 0.015625
0.695514 0.0390625 0.015625
0.694975 0.0546875 0.015625
0.694975 0.0546875 0.0234375
0.695266 0.046875 0.0234375
0.695266 0.046875 0.015625
0.694643 0.0625 0.0234375
0.694643 0.0625 0.015625
0.694975 0.0546875 0.015625
0.694975 0.0546875 0.0234375
0.694272 0.0703125 0.015625
0.694272 0.0703125 0.0234375
0.694642 0.0625 0.0234375
0.694642 0.0625 0.015625
0.693864 0.078125 0.015625
0.693864 0.078125 0.0234375
0.694271 0.0703125 0.0234375
0.694271 0.0703125 0.015625
0.693421 0.0859375 0.0234375
0.693421 0.0859375 0.015625
0.693863 0.078125 0.015625
0.693863 0.078125 0.0234375
0.692947 0.09375 0.015625
0.692947 0.09375 0.0234375
0.69342 0.0859375 0.0234375
0.69342 0.0859375 0.015625
0.692445 0.101562 0.0234375
0.692445 0.101562 0.015625
0.692946 0.09375 0.015625
0.692946 0.09375 0.0234375
0.691918 0.109375 0.0234375
0.691918 0.109375 0.015625
0.692444 0.101562 0.015625
0.692444 0.101562 0.0234375
0.691371 0.117188 0.0234375
0.691371 0.117188 0.015625
0.691917 0.109375 0.015625
0.691917 0.109375 0.0234375
0.69137 0.117188 0.015625
0.69137 0.117188 0.0234375
0.690808 0.125 0.0234375
0.690808 0.125 0.015625
0.690806 0.125 0.0234375
0.690806 0.125 0.015625
0.690233 0.132812 0.015625
0.690233 0.132812 0.0234375
0.69137 0.117188 -0.0078125
0.69137 0.117188 0
0.690808 0.125 0
0.690808 0.125 -0.0078125
0.690806 0.125 0
0.690806 0.125 -0.0078125
0.690233 0.132812 -0.0078125
0.690233 0.132812 0
0.690232 0.132812 -0.0078125
0.690232 0.132812 0
0.689654 0.140625 0
0.689654 0.140625 -0.0078125
0.689652 0.140625 -0.0078125
0.689652 0.140625 0
0.689074 0.148438 0
0.689074 0.148438 -0.0078125
0.689073 0.148438 0
0.689073 0.148438 -0.0078125
0.688503 0.15625 -0.0078125
0.688503 0.15625 0
0.688501 0.15625 -0.0078125
0.688501 0.15625 0
0.687947 0.164062 0
0.687947 0.164062 -0.0078125
0.687415 0.171875 0
0.6875 0.170616 0
0.6875 0.170616 -0.0078125
0.687415 0.171875 -0.0078125
0.687946 0.164062 0
0.6875 0.170627 0
0.6875 0.170627 -0.0078125
0.687946 0.164062 -0.0078125
0.686915 0.179688 -0.0078125
0.686915 0.179688 0
0.687413 0.171875 0
0.687413 0.171875 -0.0078125
0.686458 0.1875 -0.0078125
0.686458 0.1875 0
0.686912 0.179688 0
0.686912 0.179688 -0.0078125
0.686057 0.195312 -0.0078125
0.686057 0.195312 0
0.686455 0.1875 0
0.686455 0.1875 -0.0078125
0.685724 0.203125 0
0.685724 0.203125 -0.0078125
0.686053 0.195312 -0.0078125
0.686053 0.195312 0
0.685475 0.210938 0
0.685475 0.210938 -0.0078125
0.68572 0.203125 -0.0078125
0.68572 0.203125 0
0.685326 0.21875 0
0.685326 0.21875 -0.0078125
0.68547 0.210938 -0.0078125
0.68547 0.210938 0
0.685295 0.226562 -0.0078125
0.685295 0.226562 0
0.68532 0.21875 0
0.68532 0.21875 -0.0078125
0.685289 0.226562 -0.0078125
0.685289 0.226562 0
0.685404 0.234375 0
0.685404 0.234375 -0.0078125
0.685398 0.234375 0
0.685398 0.234375 -0.0078125
0.685677 0.242188 -0.0078125
0.685677 0.242188 0
0.68567 0.242188 0
0.68567 0.242188 -0.0078125
0.68614 0.25 -0.0078125
0.68614 0.25 0
[...]
CELL_DATA 656
SCALARS c float
LOOKUP_TABLE default
-1.00191e+06
-1.00091e+06
-999911
-998911
-997911
-996911
-995911
-994912
-994911
-993912
-992912
-991912
-990912
-989912
-988912
-987912
-986912
-985912
-984912
-983912
-1911
-911
89
1089
2089
3089
4089
5088
5089
6088
7088
8088
9088
10088
11088
12088
13088
14088
15088
16088
998089
999089
1.00009e+06
1.00109e+06
1.00209e+06
1.00309e+06
1.00409e+06
1.00509e+06
1.00509e+06
1.00609e+06
1.00709e+06
1.00809e+06
1.00909e+06
1.01009e+06
1.01109e+06
1.01209e+06
1.01309e+06
1.01409e+06
1.01509e+06
1.01609e+06
1.99809e+06
1.99909e+06
2.00009e+06
2.00109e+06
2.00209e+06
2.00309e+06
2.00409e+06
2.00509e+06
2.00509e+06
2.00609e+06
2.00709e+06
2.00809e+06
2.00909e+06
2.01009e+06
2.01109e+06
2.01209e+06
2.01309e+06
2.01409e+06
2.01509e+06
2.01609e+06
-984912
-983912
-982912
-981912
-980912
-979912
-978913
-978912
-977913
-976913
-975913
-974913
-973913
-972913
-971913
-970913
-969913
-968913
-967913
15088
16088
17088
18088
19088
20088
21087
21088
22087
23087
24087
25087
26087
27087
28087
29087
30087
31087
32087
1.01509e+06
1.01609e+06
1.01709e+06
1.01809e+06
1.01909e+06
1.02009e+06
1.02109e+06
1.02109e+06
1.02209e+06
1.02309e+06
1.02409e+06
1.02509e+06
1.02609e+06
1.02709e+06
1.02809e+06
1.02909e+06
1.03009e+06
1.03109e+06
1.03209e+06
2.01509e+06
2.01609e+06
2.01709e+06
2.01809e+06
2.01909e+06
2.02009e+06
2.02109e+06
2.02109e+06
2.02209e+06
2.02309e+06
2.02409e+06
2.02509e+06
2.02609e+06
2.02709e+06
2.02809e+06
2.02909e+06
2.03009e+06
2.03109e+06
2.03209e+06
-968913
-967913
-966913
-966912
-965912
-964912
-963912
-962912
-962911
-961912
-961911
-960911
-960910
-959911
-959910
-958910
-958909
-957909
-957908
-957907
-956907
-956906
-956905
-956904
31087
32087
33087
33088
34088
35088
36088
37088
37089
38088
38089
39089
39090
40089
40090
41090
41091
42091
42092
42093
43093
43094
43095
43096
1.03109e+06
1.03209e+06
1.03309e+06
1.03309e+06
1.03409e+06
1.03509e+06
1.03609e+06
1.03709e+06
1.03709e+06
1.03809e+06
1.03809e+06
1.03909e+06
1.03909e+06
1.04009e+06
1.04009e+06
1.04109e+06
1.04109e+06
1.04209e+06
1.04209e+06
1.04209e+06
1.04309e+06
1.04309e+06
1.0431e+06
1.0431e+06
2.03109e+06
2.03209e+06
2.03309e+06
2.03309e+06
2.03409e+06
2.03509e+06
2.03609e+06
2.03709e+06
2.03709e+06
2.03809e+06
2.03809e+06
2.03909e+06
2.03909e+06
2.04009e+06
2.04009e+06
2.04109e+06
2.04109e+06
2.04209e+06
2.04209e+06
2.04209e+06
2.04309e+06
2.04309e+06
2.0431e+06
2.0431e+06
-962888
-961890
-961889
-961888
-960892
-960891
-960890
-959894
-959893
-959892
-958896
-958895
-958894
-957899
-957898
-957897
-957896
-956905
-956904
-956903
-956902
-956901
-956900
-956899
37112
38110
38111
38112
39108
39109
39110
40106
40107
40108
41104
41105
41106
42101
42102
42103
42104
43095
43096
43097
43098
43099
43100
43101
1.03711e+06
1.03811e+06
1.03811e+06
1.03811e+06
1.03911e+06
1.03911e+06
1.03911e+06
1.04011e+06
1.04011e+06
1.04011e+06
1.0411e+06
1.0411e+06
1.04111e+06
1.0421e+06
1.0421e+06
1.0421e+06
1.0421e+06
1.0431e+06
1.0431e+06
1.0431e+06
1.0431e+06
1.0431e+06
1.0431e+06
1.0431e+06
2.03711e+06
2.03811e+06
2.03811e+06
2.03811e+06
2.03911e+06
2.03911e+06
2.03911e+06
2.04011e+06
2.04011e+06
2.04011e+06
2.0411e+06
2.0411e+06
2.04111e+06
2.0421e+06
2.0421e+06
2.0421e+06
2.0421e+06
2.0431e+06
2.0431e+06
2.0431e+06
2.0431e+06
2.0431e+06
2.0431e+06
2.0431e+06
-978872
-977872
-976873
-976872
-975874
-975873
-974875
-974874
-973875
-972876
-972875
-971877
-971876
-970878
-970877
-969879
-969878
-968880
-968879
-967881
-967880
21128
22128
23127
23128
24126
24127
25125
25126
26125
27124
27125
28123
28124
29122
29123
30121
30122
31120
31121
32119
32120
1.02113e+06
1.02213e+06
1.02313e+06
1.02313e+06
1.02413e+06
1.02413e+06
1.02512e+06
1.02513e+06
1.02612e+06
1.02712e+06
1.02712e+06
1.02812e+06
1.02812e+06
1.02912e+06
1.02912e+06
1.03012e+06
1.03012e+06
1.03112e+06
1.03112e+06
1.03212e+06
1.03212e+06
2.02113e+06
2.02213e+06
2.02313e+06
2.02313e+06
2.02413e+06
2.02413e+06
2.02512e+06
2.02513e+06
2.02612e+06
2.02712e+06
2.02712e+06
2.02812e+06
2.02812e+06
2.02912e+06
2.02912e+06
2.03012e+06
2.03012e+06
2.03112e+06
2.03112e+06
2.03212e+06
2.03212e+06
-968880
-968879
-967881
-967880
-966883
-966882
-966881
-965884
-965883
-964885
-964884
-963887
-963886
-963885
-962888
-962887
-961889
-961888
31120
31121
32119
32120
33117
33118
33119
34116
34117
35115
35116
36113
36114
36115
37112
37113
38111
38112
1.03112e+06
1.03112e+06
1.03212e+06
1.03212e+06
1.03312e+06
1.03312e+06
1.03312e+06
1.03412e+06
1.03412e+06
1.03512e+06
1.03512e+06
1.03611e+06
1.03611e+06
1.03612e+06
1.03711e+06
1.03711e+06
1.03811e+06
1.03811e+06
2.03112e+06
2.03112e+06
2.03212e+06
2.03212e+06
2.03312e+06
2.03312e+06
2.03312e+06
2.03412e+06
2.03412e+06
2.03512e+06
2.03512e+06
2.03611e+06
2.03611e+06
2.03612e+06
2.03711e+06
2.03711e+06
2.03811e+06
2.03811e+06
-1.00186e+06
-1.00086e+06
-999865
-998865
-997865
-996865
-995865
-994866
-994865
-993866
-992866
-991866
-990866
-989867
-989866
-988867
-987867
-986868
-986867
-985868
-984868
-983869
-983868
-1865
-865
135
1135
2135
3135
4135
5134
5135
6134
7134
8134
9134
10133
10134
11133
12133
13132
13133
14132
15132
16131
16132
998135
999135
1.00014e+06
1.00114e+06
1.00214e+06
1.00314e+06
1.00414e+06
1.00513e+06
1.00514e+06
1.00613e+06
1.00713e+06
1.00813e+06
1.00913e+06
1.01013e+06
1.01013e+06
1.01113e+06
1.01213e+06
1.01313e+06
1.01313e+06
1.01413e+06
1.01513e+06
1.01613e+06
1.01613e+06
1.99814e+06
1.99914e+06
2.00014e+06
2.00114e+06
2.00214e+06
2.00314e+06
2.00414e+06
2.00513e+06
2.00514e+06
2.00613e+06
2.00713e+06
2.00813e+06
2.00913e+06
2.01013e+06
2.01013e+06
2.01113e+06
2.01213e+06
2.01313e+06
2.01313e+06
2.01413e+06
2.01513e+06
2.01613e+06
2.01613e+06
-984868
-983869
-983868
-982869
-981870
-981869
-980870
-979871
-979870
-978872
-978871
-977872
-976873
-976872
-975873
15132
16131
16132
17131
18130
18131
19130
20129
20130
21128
21129
22128
23127
23128
24127
1.01513e+06
1.01613e+06
1.01613e+06
1.01713e+06
1.01813e+06
1.01813e+06
1.01913e+06
1.02013e+06
1.02013e+06
1.02113e+06
1.02113e+06
1.02213e+06
1.02313e+06
1.02313e+06
1.02413e+06
2.01513e+06
2.01613e+06
2.01613e+06
2.01713e+06
2.01813e+06
2.01813e+06
2.01913e+06
2.02013e+06
2.02013e+06
2.02113e+06
2.02113e+06
2.02213e+06
2.02313e+06
2.02313e+06
2.02413e+06
