<?xml version="1.0"?>
<VTKFile type="StructuredGrid" version="0.1" byte_order="LittleEndian">
  <StructuredGrid WholeExtent="0 8 0 8 0 8">
    <Piece Extent="0 8 0 8 0 8">
      <PointData>
      </PointData>
      <CellData>
        <DataArray Name="vy" NumberOfComponents="1" type="Float32" format="ascii">
0.32305656873361543457 0.58771690866907866369 0.64451715572321743863 0.65002896054928316349 0.64995695392526164902 0.64449790978699661448 0.58774035801504487253 0.32308347455407587789 0.31684359074424600644 0.58469459263488043899 0.64400150432458613814 0.65044644233945725365 0.65034867242038185697 0.64397277212490855458 0.58471692430539690122 0.31686852006531968096 0.30454649648885295798 0.57365657586113893984 0.63665879963451110779 0.64461719574975717695 0.64449381483419954098 0.63661867931682336597 0.57367300798380582716 0.30457056172475371891 0.2975026948287867179 0.56517253461517247271 0.63065606897681014686 0.63960139235996682494 0.63946140193075140523 0.63060147737244931498 0.56518706280438679723 0.29752542505942275453 0.29390644818232730673 0.559847935817286535 0.62662756646449246922 0.63617603326956784215 0.63600808937443065183 0.62656172872426274534 0.55985773765763657828 0.29392962872407829567 0.29286816959641093217 0.55769880193772414234 0.62511718374875480109 0.63473770900562853647 0.63455308992054826334 0.62504574796465639519 0.55770712419306933683 0.29289259127066713528 0.29050618066058736533 0.55435191399091465758 0.61972733934317880689 0.62914728421763788102 0.62894772380608365836 0.61965215300514375762 0.55436087024064983897 0.29053007284504522856 0.29718139037721230666 0.56399446704669142783 0.62802823355087422641 0.63706028275870474342 0.63694663582754551534 0.62797887912386296527 0.5640132933141955851 0.29720532380944286732 0.58771224567125945892 1.1472073869010941394 1.2674953856624866511 1.2763326380581365704 1.2763136622381445751 1.2675134583125624577 1.1472517280436338449 0.58773386084930356876 0.58468988031740898315 1.1492199018363482566 1.2728033116755006482 1.2826989134733701725 1.28268083403566302 1.2728145215445187954 1.1492614410523100954 0.58471049419033549466 0.57365191735457088384 1.1450237159171510193 1.2750392635701284227 1.2872142515987858857 1.2871820385712902102 1.2750449330078135191 1.1450591493273702959 0.57366685116343929529 0.56516759549446882183 1.1396166971312704508 1.2755646849515309693 1.2898332236759029179 1.2897779996366058874 1.275566510437873724 1.1396472931703884868 0.56518106814220681056 0.55984244584196629635 1.1350444455986996584 1.2756012057442065455 1.2915734719374789563 1.2915144545947323529 1.2755941277257603073 1.1350737551051546248 0.55985215928024156806 0.55769282444163037482 1.1321183819843325669 1.2758942362795804293 1.2933037959043311993 1.2932407218552661732 1.275884195660856868 1.1321437620410470526 0.55770146641363838036 0.55434589160198000091 1.1275648333647145805 1.2727847044269464671 1.2912295118992000997 1.2911597024041068238 1.2727698540180107933 1.1275905502768586164 0.55435511892462940864 0.56399032161986917266 1.1358043357918896632 1.2785947631329572793 1.2973374763906955209 1.2972695448089999193 1.2785846541268273135 1.1358287069468384622 0.56400931049440727882 0.64451249520318354413 1.2674856881720211188 1.4007524028795756976 1.4098411718136565352 1.4098596605259776648 1.4007763973099376376 1.2675084999093819693 0.64448896221445173271 0.64399679495011197261 1.2727936187825625858 1.4091172127042601581 1.4192037299330031441 1.419208948388424929 1.4091510877066586449 1.2728095215418575581 0.6439637287344179839 0.63665388156457636271 1.2750288742024586952 1.4181320866575422013 1.4306243398979048287 1.4306325733829445834 1.4181674361904144099 1.2750395003475480937 0.63660987392640933091 0.63065056329116608858 1.275553163343952745 1.4252558150557761429 1.4399323066010620842 1.4399524716561376003 1.4252851066137746106 1.2755595468430622752 0.63059250783098930171 0.62662090572322171056 1.2755882797103479387 1.4306481044684213888 1.4470227298420739181 1.447041436691342664 1.4306826430165260344 1.2755861015632565802 0.62655437206693243013 0.62510974753080239541 1.2758802559926920583 1.4348637240856678687 1.4526509518199524074 1.4526664783298621764 1.4349027683057731242 1.2758756889892477471 0.62503879864665656818 0.61971945036835318632 1.2727694668434890168 1.4340908165813439634 1.4528813185574942501 1.4529108457112915875 1.4341263728950679468 1.2727605472444982748 0.61964463951452730672 0.62802113191401920389 1.2785804653977561607 1.4368813304708654144 1.4555713425657206272 1.4555895899630553192 1.4369093808683344182 1.278578545853409798 0.62797588380518609696 0.65003028000635076911 1.2763223126791973794 1.4098345340624300892 1.4191422891356273439 1.4191244810186012248 1.4098559949405176095 1.2763122913956450599 0.64995370520271422698 0.65044804835529146381 1.2826885223209902875 1.4191971436422858854 1.4294920010544829303 1.4294896118299618148 1.4192054507817637443 1.2826790402409098402 0.65034604128198403306 0.6446192466615103811 1.2872045960135285458 1.4306169865221174398 1.443421699225494681 1.4434281166689733045 1.4306289527822897423 1.2871796707696889772 0.64449097579802450131 0.63960394936770414986 1.2898229710420736627 1.4399249335605084354 1.4549314207211485606 1.4549215450240495784 1.4399482012437687661 1.289775314054150579 0.63945801471818075612 0.63617878163473318143 1.2915629626356359694 1.4470134793918092431 1.4636120829380172559 1.4636047128329137124 1.4470354025768288331 1.2915109203688202033 0.6360028121837602022 0.6347394215222178504 1.2932931774254978752 1.4526402151215747072 1.4704510722457164729 1.4704542214515721188 1.4526589428787897162 1.2932372698760943308 0.63454864553011436357 0.62914686248538698177 1.291218793567640466 1.4528698494325862356 1.4715675906460830014 1.4715442015207471638 1.4529022907873587744 1.2911564277494922415 0.62894677024349698868 0.6370588249701082395 1.2973268752875939391 1.4555617279094450467 1.4737551411456750738 1.4737551608998495922 1.4555815012514565776 1.2972717322784990124 0.63696127462122864582 0.6499617543137623521 1.2763196580975508798 1.4098522060046558835 1.4191154918422694831 1.419133197682665104 1.4098305461279532214 1.2763293327521403331 0.65003785991422624591 0.6503551128382947244 1.2826863539151702742 1.4192026635548371516 1.4294797793642759487 1.4294820404154262583 1.419194160409351424 1.28269547500943637 0.65045652638651074717 0.64450193433948566035 1.2871876615102959551 1.4306283985221555088 1.4434163931525936242 1.4434098329946318806 1.430616260527372896 1.2872121272822791838 0.6446291596715145733 0.63947218179323550569 1.2897870547754102244 1.4399466563006548814 1.4549097698298651959 1.4549195221051178795 1.4399232359616849219 1.2898340707097972757 0.63961626191839815458 0.63602312784417336378 1.2915288463702232491 1.4470350899428598979 1.4635871470650767545 1.463594451239084826 1.4470131113444013593 1.2915799660961242434 0.63619420217063782363 0.63457057967372199059 1.293261093471378631 1.4526616035959658557 1.4704297988732886182 1.4704266477986700501 1.4526429735963191092 1.2933156427451715231 0.6347565170598613582 0.62896482254676433499 1.2911858786279284406 1.4529067226376013444 1.4715142259727020946 1.4715377010808203817 1.452874353746011149 1.2912465274623738942 0.62916235423086608325 0.63695642779845407233 1.2972946347638252274 1.4555893505737589333 1.4737350352361535677 1.4737351976867909542 1.4555694585673359942 1.2973483070582352283 0.63705255293068441258 0.64450098747416850742 1.2675111174637925249 1.4007683279786478092 1.4098455448025475345 1.4098271276753748804 1.4007444802524899874 1.2674884034311739711 0.64452458587391536771 0.64397599598825372436 1.2728136351553249739 1.4091419541518843683 1.4191960426632626024 1.4191909220637952682 1.4091082044147047458 1.2727978098485435154 0.64400920473686396051 0.63662359411123370379 1.2750463280701875846 1.4181567329132382937 1.4306209986263738188 1.4306129197537917896 1.4181214628122262855 1.2750358125312084567 0.63666794807429705205 0.63060856455751146399 1.2755691737572281141 1.4252744028041470781 1.4399392298215316632 1.4399192062849466289 1.4252452240069004574 1.2755630252027196914 0.63066749529665544483 0.6265707106753040101 1.2755982796423717129 1.4306704037518711559 1.4470257465317144518 1.4470071332307314904 1.4306360355230145487 1.2756009411907782702 0.62664038822550338637 0.62505552178953405207 1.2758916123661629971 1.434888239493844031 1.4526507893821465345 1.4526353551439104006 1.4348493136086055699 1.2758970479014897226 0.62512935325919494201 0.61966170300136069748 1.2727789866276251196 1.4341126718279544328 1.4528953316803552287 1.4528658604567594725 1.4340771970996772922 1.272789018024426122 0.61973748557524277469 0.62798419963570284441 1.2785945553886481907 1.4369005118481703587 1.4555799533546616154 1.4555616094862902088 1.4368725118132084084 1.2785972146491035861 0.62802972024475889334 0.5877405968793437685 1.1472503024423765794 1.2675015030985712361 1.2763092797960982061 1.2763283475625197827 1.2674834849472500498 1.147206089461087819 0.58771913571684553101 0.58471822161180264654 1.1492598569268606123 1.2728039816772918069 1.2826759484772944919 1.2826940935553385881 1.2727928516930240299 1.149218462150729092 0.58469776528644790137 0.57367496095559633584 1.1450579316822477871 1.2750359135986903958 1.2871780694336951711 1.2872102874605935163 1.2750303637394333478 1.1450226711401247925 0.57366032872832695144 0.56518936650699425073 1.1396462609607362904 1.2755576637236081261 1.2897768719291333728 1.2898321002805603896 1.2755559281913619873 1.1396159316260625616 0.56517638723747454232 0.55986044149852953744 1.1350739300188303904 1.275585417011336764 1.2915183882503682433 1.2915774041780478942 1.2755925423343816849 1.1350450315588642702 0.55985171100985553494 0.55770961923339135158 1.1321440777594486971 1.2758777107883583213 1.2932505589960536785 1.293313563152430623 1.2758878157008950449 1.1321191964604775393 0.55770183487743918427 0.55436250985036039651 1.1275917897511380517 1.2727637952721146952 1.2911753284791076535 1.291245005391289169 1.2727787691035228335 1.1275666615618287203 0.55435380944460543873 0.56401352200483167998 1.1358295754617198092 1.2785802845755005475 1.2972842548492951043 1.2973519892567395573 1.2785905175941487677 1.135805695038457408 0.5639947546128678546 0.32308472160306883625 0.58773597047503711721 0.6444963674778393381 0.64996315719346064999 0.65003506732963367565 0.64451560994192369503 0.58771259164398281793 0.32305790889313268366 0.31686992460426954832 0.58471352348114458142 0.6439714021083324802 0.650356759509762683 0.65045445030975179712 0.64400011122376987771 0.58469127876471516103 0.31684510513588232117 0.30457228641420436288 0.57367033669960532105 0.63661870134479581207 0.64450409827631760518 0.64462737527282842898 0.63665883688727542555 0.57365399830305474627 0.30454833236740436186 0.29752682189041451677 0.56518444526903488523 0.63060311296546067705 0.63947482933492327817 0.63961476896554536609 0.63065770381699248759 0.56516994241130635857 0.29750415967451854238 0.29393060894761868784 0.55985498605241712511 0.62656402442689063115 0.63602602675291808332 0.63619391553102433434 0.62662983767812652225 0.55984512300090538695 0.29390727888354056807 0.29289280616919793898 0.55770365242286101815 0.62504807442565679665 0.6345723838618096968 0.63475696502414769018 0.62511947384874466671 0.55769530361645414107 0.2928683881344430473 0.29053008636435051493 0.55435649771221484627 0.61965381250001849711 0.62896456851947546429 0.62916392205256799208 0.61972895218380386062 0.5543476072474823324 0.29050630213149009062 0.2972050310120652461 0.56400936837016779624 0.62797714202659538074 0.63695513076906917771 0.63706849264262521704 0.62802644023693776631 0.5639906354646909703 0.29718119339789661471 
        </DataArray>
      </CellData>
      <Points>
        <DataArray Name="m" NumberOfComponents="3" type="Float32" format="ascii">
0 0 0 0.125 0 0 0.25 0 0 0.375 0 0 0.5 0 0 0.625 0 0 0.75 0 0 0.875 0 0 1 0 0 0 0.125 0 0.125 0.125 0 0.25 0.125 0 0.375 0.125 0 0.5 0.125 0 0.625 0.125 0 0.75 0.125 0 0.875 0.125 0 1 0.125 0 0 0.25 0 0.125 0.25 0 0.25 0.25 0 0.375 0.25 0 0.5 0.25 0 0.625 0.25 0 0.75 0.25 0 0.875 0.25 0 1 0.25 0 0 0.375 0 0.125 0.375 0 0.25 0.375 0 0.375 0.375 0 0.5 0.375 0 0.625 0.375 0 0.75 0.375 0 0.875 0.375 0 1 0.375 0 0 0.5 0 0.125 0.5 0 0.25 0.5 0 0.375 0.5 0 0.5 0.5 0 0.625 0.5 0 0.75 0.5 0 0.875 0.5 0 1 0.5 0 0 0.625 0 0.125 0.625 0 0.25 0.625 0 0.375 0.625 0 0.5 0.625 0 0.625 0.625 0 0.75 0.625 0 0.875 0.625 0 1 0.625 0 0 0.75 0 0.125 0.75 0 0.25 0.75 0 0.375 0.75 0 0.5 0.75 0 0.625 0.75 0 0.75 0.75 0 0.875 0.75 0 1 0.75 0 0 0.875 0 0.125 0.875 0 0.25 0.875 0 0.375 0.875 0 0.5 0.875 0 0.625 0.875 0 0.75 0.875 0 0.875 0.875 0 1 0.875 0 0 1 0 0.125 1 0 0.25 1 0 0.375 1 0 0.5 1 0 0.625 1 0 0.75 1 0 0.875 1 0 1 1 0 0 0 0.125 0.125 0 0.125 0.25 0 0.125 0.375 0 0.125 0.5 0 0.125 0.625 0 0.125 0.75 0 0.125 0.875 0 0.125 1 0 0.125 0 0.125 0.125 0.125 0.125 0.125 0.25 0.125 0.125 0.375 0.125 0.125 0.5 0.125 0.125 0.625 0.125 0.125 0.75 0.125 0.125 0.875 0.125 0.125 1 0.125 0.125 0 0.25 0.125 0.125 0.25 0.125 0.25 0.25 0.125 0.375 0.25 0.125 0.5 0.25 0.125 0.625 0.25 0.125 0.75 0.25 0.125 0.875 0.25 0.125 1 0.25 0.125 0 0.375 0.125 0.125 0.375 0.125 0.25 0.375 0.125 0.375 0.375 0.125 0.5 0.375 0.125 0.625 0.375 0.125 0.75 0.375 0.125 0.875 0.375 0.125 1 0.375 0.125 0 0.5 0.125 0.125 0.5 0.125 0.25 0.5 0.125 0.375 0.5 0.125 0.5 0.5 0.125 0.625 0.5 0.125 0.75 0.5 0.125 0.875 0.5 0.125 1 0.5 0.125 0 0.625 0.125 0.125 0.625 0.125 0.25 0.625 0.125 0.375 0.625 0.125 0.5 0.625 0.125 0.625 0.625 0.125 0.75 0.625 0.125 0.875 0.625 0.125 1 0.625 0.125 0 0.75 0.125 0.125 0.75 0.125 0.25 0.75 0.125 0.375 0.75 0.125 0.5 0.75 0.125 0.625 0.75 0.125 0.75 0.75 0.125 0.875 0.75 0.125 1 0.75 0.125 0 0.875 0.125 0.125 0.875 0.125 0.25 0.875 0.125 0.375 0.875 0.125 0.5 0.875 0.125 0.625 0.875 0.125 0.75 0.875 0.125 0.875 0.875 0.125 1 0.875 0.125 0 1 0.125 0.125 1 0.125 0.25 1 0.125 0.375 1 0.125 0.5 1 0.125 0.625 1 0.125 0.75 1 0.125 0.875 1 0.125 1 1 0.125 0 0 0.25 0.125 0 0.25 0.25 0 0.25 0.375 0 0.25 0.5 0 0.25 0.625 0 0.25 0.75 0 0.25 0.875 0 0.25 1 0 0.25 0 0.125 0.25 0.125 0.125 0.25 0.25 0.125 0.25 0.375 0.125 0.25 0.5 0.125 0.25 0.625 0.125 0.25 0.75 0.125 0.25 0.875 0.125 0.25 1 0.125 0.25 0 0.25 0.25 0.125 0.25 0.25 0.25 0.25 0.25 0.375 0.25 0.25 0.5 0.25 0.25 0.625 0.25 0.25 0.75 0.25 0.25 0.875 0.25 0.25 1 0.25 0.25 0 0.375 0.25 0.125 0.375 0.25 0.25 0.375 0.25 0.375 0.375 0.25 0.5 0.375 0.25 0.625 0.375 0.25 0.75 0.375 0.25 0.875 0.375 0.25 1 0.375 0.25 0 0.5 0.25 0.125 0.5 0.25 0.25 0.5 0.25 0.375 0.5 0.25 0.5 0.5 0.25 0.625 0.5 0.25 0.75 0.5 0.25 0.875 0.5 0.25 1 0.5 0.25 0 0.625 0.25 0.125 0.625 0.25 0.25 0.625 0.25 0.375 0.625 0.25 0.5 0.625 0.25 0.625 0.625 0.25 0.75 0.625 0.25 0.875 0.625 0.25 1 0.625 0.25 0 0.75 0.25 0.125 0.75 0.25 0.25 0.75 0.25 0.375 0.75 0.25 0.5 0.75 0.25 0.625 0.75 0.25 0.75 0.75 0.25 0.875 0.75 0.25 1 0.75 0.25 0 0.875 0.25 0.125 0.875 0.25 0.25 0.875 0.25 0.375 0.875 0.25 0.5 0.875 0.25 0.625 0.875 0.25 0.75 0.875 0.25 0.875 0.875 0.25 1 0.875 0.25 0 1 0.25 0.125 1 0.25 0.25 1 0.25 0.375 1 0.25 0.5 1 0.25 0.625 1 0.25 0.75 1 0.25 0.875 1 0.25 1 1 0.25 0 0 0.375 0.125 0 0.375 0.25 0 0.375 0.375 0 0.375 0.5 0 0.375 0.625 0 0.375 0.75 0 0.375 0.875 0 0.375 1 0 0.375 0 0.125 0.375 0.125 0.125 0.375 0.25 0.125 0.375 0.375 0.125 0.375 0.5 0.125 0.375 0.625 0.125 0.375 0.75 0.125 0.375 0.875 0.125 0.375 1 0.125 0.375 0 0.25 0.375 0.125 0.25 0.375 0.25 0.25 0.375 0.375 0.25 0.375 0.5 0.25 0.375 0.625 0.25 0.375 0.75 0.25 0.375 0.875 0.25 0.375 1 0.25 0.375 0 0.375 0.375 0.125 0.375 0.375 0.25 0.375 0.375 0.375 0.375 0.375 0.5 0.375 0.375 0.625 0.375 0.375 0.75 0.375 0.375 0.875 0.375 0.375 1 0.375 0.375 0 0.5 0.375 0.125 0.5 0.375 0.25 0.5 0.375 0.375 0.5 0.375 0.5 0.5 0.375 0.625 0.5 0.375 0.75 0.5 0.375 0.875 0.5 0.375 1 0.5 0.375 0 0.625 0.375 0.125 0.625 0.375 0.25 0.625 0.375 0.375 0.625 0.375 0.5 0.625 0.375 0.625 0.625 0.375 0.75 0.625 0.375 0.875 0.625 0.375 1 0.625 0.375 0 0.75 0.375 0.125 0.75 0.375 0.25 0.75 0.375 0.375 0.75 0.375 0.5 0.75 0.375 0.625 0.75 0.375 0.75 0.75 0.375 0.875 0.75 0.375 1 0.75 0.375 0 0.875 0.375 0.125 0.875 0.375 0.25 0.875 0.375 0.375 0.875 0.375 0.5 0.875 0.375 0.625 0.875 0.375 0.75 0.875 0.375 0.875 0.875 0.375 1 0.875 0.375 0 1 0.375 0.125 1 0.375 0.25 1 0.375 0.375 1 0.375 0.5 1 0.375 0.625 1 0.375 0.75 1 0.375 0.875 1 0.375 1 1 0.375 0 0 0.5 0.125 0 0.5 0.25 0 0.5 0.375 0 0.5 0.5 0 0.5 0.625 0 0.5 0.75 0 0.5 0.875 0 0.5 1 0 0.5 0 0.125 0.5 0.125 0.125 0.5 0.25 0.125 0.5 0.375 0.125 0.5 0.5 0.125 0.5 0.625 0.125 0.5 0.75 0.125 0.5 0.875 0.125 0.5 1 0.125 0.5 0 0.25 0.5 0.125 0.25 0.5 0.25 0.25 0.5 0.375 0.25 0.5 0.5 0.25 0.5 0.625 0.25 0.5 0.75 0.25 0.5 0.875 0.25 0.5 1 0.25 0.5 0 0.375 0.5 0.125 0.375 0.5 0.25 0.375 0.5 0.375 0.375 0.5 0.5 0.375 0.5 0.625 0.375 0.5 0.75 0.375 0.5 0.875 0.375 0.5 1 0.375 0.5 0 0.5 0.5 0.125 0.5 0.5 0.25 0.5 0.5 0.375 0.5 0.5 0.5 0.5 0.5 0.625 0.5 0.5 0.75 0.5 0.5 0.875 0.5 0.5 1 0.5 0.5 0 0.625 0.5 0.125 0.625 0.5 0.25 0.625 0.5 0.375 0.625 0.5 0.5 0.625 0.5 0.625 0.625 0.5 0.75 0.625 0.5 0.875 0.625 0.5 1 0.625 0.5 0 0.75 0.5 0.125 0.75 0.5 0.25 0.75 0.5 0.375 0.75 0.5 0.5 0.75 0.5 0.625 0.75 0.5 0.75 0.75 0.5 0.875 0.75 0.5 1 0.75 0.5 0 0.875 0.5 0.125 0.875 0.5 0.25 0.875 0.5 0.375 0.875 0.5 0.5 0.875 0.5 0.625 0.875 0.5 0.75 0.875 0.5 0.875 0.875 0.5 1 0.875 0.5 0 1 0.5 0.125 1 0.5 0.25 1 0.5 0.375 1 0.5 0.5 1 0.5 0.625 1 0.5 0.75 1 0.5 0.875 1 0.5 1 1 0.5 0 0 0.625 0.125 0 0.625 0.25 0 0.625 0.375 0 0.625 0.5 0 0.625 0.625 0 0.625 0.75 0 0.625 0.875 0 0.625 1 0 0.625 0 0.125 0.625 0.125 0.125 0.625 0.25 0.125 0.625 0.375 0.125 0.625 0.5 0.125 0.625 0.625 0.125 0.625 0.75 0.125 0.625 0.875 0.125 0.625 1 0.125 0.625 0 0.25 0.625 0.125 0.25 0.625 0.25 0.25 0.625 0.375 0.25 0.625 0.5 0.25 0.625 0.625 0.25 0.625 0.75 0.25 0.625 0.875 0.25 0.625 1 0.25 0.625 0 0.375 0.625 0.125 0.375 0.625 0.25 0.375 0.625 0.375 0.375 0.625 0.5 0.375 0.625 0.625 0.375 0.625 0.75 0.375 0.625 0.875 0.375 0.625 1 0.375 0.625 0 0.5 0.625 0.125 0.5 0.625 0.25 0.5 0.625 0.375 0.5 0.625 0.5 0.5 0.625 0.625 0.5 0.625 0.75 0.5 0.625 0.875 0.5 0.625 1 0.5 0.625 0 0.625 0.625 0.125 0.625 0.625 0.25 0.625 0.625 0.375 0.625 0.625 0.5 0.625 0.625 0.625 0.625 0.625 0.75 0.625 0.625 0.875 0.625 0.625 1 0.625 0.625 0 0.75 0.625 0.125 0.75 0.625 0.25 0.75 0.625 0.375 0.75 0.625 0.5 0.75 0.625 0.625 0.75 0.625 0.75 0.75 0.625 0.875 0.75 0.625 1 0.75 0.625 0 0.875 0.625 0.125 0.875 0.625 0.25 0.875 0.625 0.375 0.875 0.625 0.5 0.875 0.625 0.625 0.875 0.625 0.75 0.875 0.625 0.875 0.875 0.625 1 0.875 0.625 0 1 0.625 0.125 1 0.625 0.25 1 0.625 0.375 1 0.625 0.5 1 0.625 0.625 1 0.625 0.75 1 0.625 0.875 1 0.625 1 1 0.625 0 0 0.75 0.125 0 0.75 0.25 0 0.75 0.375 0 0.75 0.5 0 0.75 0.625 0 0.75 0.75 0 0.75 0.875 0 0.75 1 0 0.75 0 0.125 0.75 0.125 0.125 0.75 0.25 0.125 0.75 0.375 0.125 0.75 0.5 0.125 0.75 0.625 0.125 0.75 0.75 0.125 0.75 0.875 0.125 0.75 1 0.125 0.75 0 0.25 0.75 0.125 0.25 0.75 0.25 0.25 0.75 0.375 0.25 0.75 0.5 0.25 0.75 0.625 0.25 0.75 0.75 0.25 0.75 0.875 0.25 0.75 1 0.25 0.75 0 0.375 0.75 0.125 0.375 0.75 0.25 0.375 0.75 0.375 0.375 0.75 0.5 0.375 0.75 0.625 0.375 0.75 0.75 0.375 0.75 0.875 0.375 0.75 1 0.375 0.75 0 0.5 0.75 0.125 0.5 0.75 0.25 0.5 0.75 0.375 0.5 0.75 0.5 0.5 0.75 0.625 0.5 0.75 0.75 0.5 0.75 0.875 0.5 0.75 1 0.5 0.75 0 0.625 0.75 0.125 0.625 0.75 0.25 0.625 0.75 0.375 0.625 0.75 0.5 0.625 0.75 0.625 0.625 0.75 0.75 0.625 0.75 0.875 0.625 0.75 1 0.625 0.75 0 0.75 0.75 0.125 0.75 0.75 0.25 0.75 0.75 0.375 0.75 0.75 0.5 0.75 0.75 0.625 0.75 0.75 0.75 0.75 0.75 0.875 0.75 0.75 1 0.75 0.75 0 0.875 0.75 0.125 0.875 0.75 0.25 0.875 0.75 0.375 0.875 0.75 0.5 0.875 0.75 0.625 0.875 0.75 0.75 0.875 0.75 0.875 0.875 0.75 1 0.875 0.75 0 1 0.75 0.125 1 0.75 0.25 1 0.75 0.375 1 0.75 0.5 1 0.75 0.625 1 0.75 0.75 1 0.75 0.875 1 0.75 1 1 0.75 0 0 0.875 0.125 0 0.875 0.25 0 0.875 0.375 0 0.875 0.5 0 0.875 0.625 0 0.875 0.75 0 0.875 0.875 0 0.875 1 0 0.875 0 0.125 0.875 0.125 0.125 0.875 0.25 0.125 0.875 0.375 0.125 0.875 0.5 0.125 0.875 0.625 0.125 0.875 0.75 0.125 0.875 0.875 0.125 0.875 1 0.125 0.875 0 0.25 0.875 0.125 0.25 0.875 0.25 0.25 0.875 0.375 0.25 0.875 0.5 0.25 0.875 0.625 0.25 0.875 0.75 0.25 0.875 0.875 0.25 0.875 1 0.25 0.875 0 0.375 0.875 0.125 0.375 0.875 0.25 0.375 0.875 0.375 0.375 0.875 0.5 0.375 0.875 0.625 0.375 0.875 0.75 0.375 0.875 0.875 0.375 0.875 1 0.375 0.875 0 0.5 0.875 0.125 0.5 0.875 0.25 0.5 0.875 0.375 0.5 0.875 0.5 0.5 0.875 0.625 0.5 0.875 0.75 0.5 0.875 0.875 0.5 0.875 1 0.5 0.875 0 0.625 0.875 0.125 0.625 0.875 0.25 0.625 0.875 0.375 0.625 0.875 0.5 0.625 0.875 0.625 0.625 0.875 0.75 0.625 0.875 0.875 0.625 0.875 1 0.625 0.875 0 0.75 0.875 0.125 0.75 0.875 0.25 0.75 0.875 0.375 0.75 0.875 0.5 0.75 0.875 0.625 0.75 0.875 0.75 0.75 0.875 0.875 0.75 0.875 1 0.75 0.875 0 0.875 0.875 0.125 0.875 0.875 0.25 0.875 0.875 0.375 0.875 0.875 0.5 0.875 0.875 0.625 0.875 0.875 0.75 0.875 0.875 0.875 0.875 0.875 1 0.875 0.875 0 1 0.875 0.125 1 0.875 0.25 1 0.875 0.375 1 0.875 0.5 1 0.875 0.625 1 0.875 0.75 1 0.875 0.875 1 0.875 1 1 0.875 0 0 1 0.125 0 1 0.25 0 1 0.375 0 1 0.5 0 1 0.625 0 1 0.75 0 1 0.875 0 1 1 0 1 0 0.125 1 0.125 0.125 1 0.25 0.125 1 0.375 0.125 1 0.5 0.125 1 0.625 0.125 1 0.75 0.125 1 0.875 0.125 1 1 0.125 1 0 0.25 1 0.125 0.25 1 0.25 0.25 1 0.375 0.25 1 0.5 0.25 1 0.625 0.25 1 0.75 0.25 1 0.875 0.25 1 1 0.25 1 0 0.375 1 0.125 0.375 1 0.25 0.375 1 0.375 0.375 1 0.5 0.375 1 0.625 0.375 1 0.75 0.375 1 0.875 0.375 1 1 0.375 1 0 0.5 1 0.125 0.5 1 0.25 0.5 1 0.375 0.5 1 0.5 0.5 1 0.625 0.5 1 0.75 0.5 1 0.875 0.5 1 1 0.5 1 0 0.625 1 0.125 0.625 1 0.25 0.625 1 0.375 0.625 1 0.5 0.625 1 0.625 0.625 1 0.75 0.625 1 0.875 0.625 1 1 0.625 1 0 0.75 1 0.125 0.75 1 0.25 0.75 1 0.375 0.75 1 0.5 0.75 1 0.625 0.75 1 0.75 0.75 1 0.875 0.75 1 1 0.75 1 0 0.875 1 0.125 0.875 1 0.25 0.875 1 0.375 0.875 1 0.5 0.875 1 0.625 0.875 1 0.75 0.875 1 0.875 0.875 1 1 0.875 1 0 1 1 0.125 1 1 0.25 1 1 0.375 1 1 0.5 1 1 0.625 1 1 0.75 1 1 0.875 1 1 1 1 1         </DataArray>
      </Points>
    </Piece>
  </StructuredGrid>
</VTKFile>
