<?xml version="1.0"?>
<VTKFile type="StructuredGrid" version="0.1" byte_order="LittleEndian">
  <StructuredGrid WholeExtent="0 8 0 8 0 8">
    <Piece Extent="0 8 0 8 0 8">
      <PointData>
      </PointData>
      <CellData>
        <DataArray Name="vy" NumberOfComponents="1" type="Float32" format="ascii">
0.32307238636097279638 0.58773006314409004247 0.64450898677255785696 0.64999522000530873811 0.64999090675339810108 0.64450029025906940827 0.58772641432851291388 0.32307265132104262539 0.31685253174232069773 0.58470484974063785533 0.64398314627762576201 0.65037959796237199139 0.65041167744397865302 0.64398175640000765441 0.58470430632867020915 0.31685305402945235231 0.30455717694687728381 0.57366538749797746366 0.63662982034540149812 0.64452366941633276731 0.644583431137005336 0.63664179342663318462 0.57366577534205320799 0.30455922187068834583 0.29751594142837761714 0.56517673687966540896 0.63061999662815959589 0.63949592679991351662 0.63956537367058985399 0.63063887092541892621 0.56518185048747837662 0.29751863725135790917 0.29391878963432238603 0.55984917437935133311 0.6265831288497056839 0.63605297864312493328 0.63614231568194934408 0.62661126971389846663 0.55986009612455056583 0.29391933509211465303 0.29288064240537681204 0.55769743544946914771 0.62506869302902179353 0.63463066500178511031 0.63466818370135458238 0.62509167434988088807 0.55770591519464196573 0.2928793394454808352 0.29051270659072020441 0.55434303903633908028 0.61968021878404011549 0.62906942550644062706 0.62903168280997823203 0.61968533077508203277 0.55435066434577551231 0.29050885920797031581 0.29718711219802101953 0.56399370307682938908 0.62799540641010453967 0.63700897941971046379 0.63700861520712059871 0.62799514329804584367 0.56399524444874815643 0.29718271722580291705 0.58772711669147681413 1.1472291897445046072 1.2674925497153113341 1.2763222628708004169 1.2763449404938231879 1.2674991111177178471 1.1472394916754091732 0.58772526737241836958 0.58470245205516857556 1.14923936388995096 1.2727986106107949116 1.2826840052466008668 1.2827104280834669137 1.2728145789905127572 1.1492401656881463534 0.58470264129378057838 0.57366472069003549006 1.1450386573349602415 1.2750373850366809592 1.2871781023710173741 1.2872021389883652187 1.2750465307362428558 1.145041112035615205 0.57366218650103717458 0.56517942041852298196 1.1396175694678942758 1.2755619775050826004 1.2898047504899934346 1.2898006781097712814 1.2755663645316288601 1.1396284942233236848 0.56517572103972202324 0.55985415996251686188 1.1350622585514620333 1.2755878274604872669 1.2915314488490192701 1.2915550806964424257 1.2756021787972235959 1.1350752912246553361 0.55985250472267500399 0.55770324291099848679 1.1321131279883653864 1.2758715015661372671 1.2932378488310807274 1.2933225295844819058 1.2759087214258242327 1.132135091116046377 0.55769808295051770397 0.55434878372109475109 1.1275657817549764594 1.272744236647127769 1.2911366770415788618 1.2912646679055499455 1.2728082490785332936 1.1275779904123466313 0.55434337406726252873 0.56399790947121908324 1.1358095891014516887 1.2785663434982377229 1.2972777329968843141 1.2973774297370654907 1.278617093872753685 1.1358204927546884377 0.56399004849536149564 0.64451141979484138922 1.267490844908737424 1.4007771746012749325 1.409851068293636267 1.4098543824616640574 1.4007759907214405448 1.2674972868978313656 0.64449290820828741833 0.64399252474504098398 1.2727969529755127631 1.4091489688616201104 1.4192067154447898236 1.4192044608637608416 1.409144684637335887 1.2728109146095669679 0.64396743189974592347 0.63665008773315012736 1.2750306600088476827 1.418151202946484668 1.4306225414464430745 1.4306326219193596927 1.4181492360291436672 1.2750469406746418599 0.63661595506881740736 0.63064400019258537444 1.2755594795242717332 1.4252800118829325182 1.4399165269678042556 1.4399443518237375894 1.425280263753530674 1.2755612019527593493 0.63061300118760432731 0.62660837192061547007 1.275590169029629406 1.4306601193553505347 1.447034075293152755 1.4470183516188195316 1.430655895010051859 1.2755961882829920384 0.62658458145219775304 0.62508606248638587388 1.2758800445583455829 1.4348866859276621089 1.4526607680416765422 1.4526305279178715057 1.4348794563546289904 1.2758968012569738004 0.62507459055761249722 0.61968699148301864543 1.2727544681160365414 1.4341100330874196889 1.4529067318262163244 1.4528726105963258863 1.4340970826134473715 1.2727944118504423976 0.61967854184266979445 0.62799773552677262689 1.2785762757515877208 1.4368942591028444067 1.4555902651456913421 1.4556076111574014487 1.4369167261054465179 1.2786055121725898864 0.62799245086373911562 0.65002362925054257836 1.2763317669706017998 1.4098445256466689557 1.4191597365286687804 1.4191181545800932717 1.4098576540681224678 1.2763324600350587357 0.64996244156002469516 0.6504376151549764451 1.2826943455664963079 1.4192002424067975408 1.4295150433194516726 1.4294888018751572556 1.4192065067687584801 1.2826972786606822829 0.65035422716755098005 0.64460994935901394509 1.2871939456706167348 1.4306157287174094961 1.4434465804369265296 1.4434123301191601474 1.4306353844104655604 1.287181944859193683 0.64449592413179068728 0.63958105884865978918 1.2898150566455102162 1.4399154713587589693 1.4549365275894245997 1.4549116500264669405 1.4399427595707794403 1.2897847491303573442 0.63949837545683274609 0.63612208227721411813 1.2915626197181071522 1.4470124070154894991 1.4635965177294631978 1.4635956142075416953 1.4470383834457325456 1.2915185420216792611 0.63608349044540601902 0.63466194180573576311 1.2932854404507581059 1.4526376417737727476 1.4704517761568034473 1.4704292285238482751 1.4526529693194862869 1.2932717219329223912 0.63464503610842359915 0.62905709389595176884 1.291177314469321713 1.4528938661203036897 1.4715549619981280749 1.4715217834892033721 1.4528853322761015043 1.2912215794683961079 0.62904726831439095047 0.6370075679472204655 1.2972949624255134538 1.4555887253895600786 1.4737787583302375261 1.4737507365272983773 1.4556088539737994658 1.2973581359075236907 0.63701048223457701347 0.64995946444065577641 1.2763426151478634019 1.409871212817617625 1.4191215612566123738 1.4191433257450991601 1.4098296015739855136 1.2763284885972288052 0.6500354042949425537 0.65034952773229737222 1.2827044009437367222 1.4192222969647760866 1.4294941308767936672 1.4294971306352717288 1.4191855241251460917 1.2826976848344746607 0.65045130544762530533 0.64449200316869459382 1.2871905555299287816 1.4306491381178216837 1.4434149797701036899 1.4434202157025519675 1.4306021130763810767 1.2872059213876561046 0.64462811623504279179 0.63947444708434364458 1.2897935540698421963 1.4399570375499330943 1.4549159756799772136 1.4549132086131386643 1.43990353287142403 1.2898332513199290972 0.63957691150633211308 0.63606521076847910567 1.2915182803411024981 1.4470535565133961775 1.4636093980375191048 1.4635762093347071122 1.4470034235246469478 1.2915807706718482883 0.63612403655305305161 0.63462978275891890334 1.2932652355631037988 1.4526580955584511567 1.4704430358635369736 1.4704352267094036311 1.4526336049334733769 1.2933011702545809118 0.63466343782843759325 0.62903921013336239199 1.2912161514554902908 1.4528856261232776514 1.4715275964028540212 1.4715480771701654472 1.4528939393064115304 1.2911886902179983139 0.62906052646491417146 0.63700503747507064567 1.2973539066661106123 1.4556088079536975144 1.4737536653971050615 1.4737749957485108965 1.4555884038029618388 1.2973040202842534008 0.63701325480651838085 0.64449638759586069803 1.2675093843269114036 1.4007916015602743798 1.4098635750596473226 1.4098338698145829184 1.4007532894442569216 1.2674821287751740773 0.644517600153866832 0.64396936926035552862 1.2728224681295758902 1.4091596888277475585 1.4192151379475246298 1.4191881925244740348 1.4091269291557999566 1.2727915031405079294 0.6440011635309700333 0.63661855294811142691 1.2750568844599534657 1.4181630651023540146 1.430639764800014424 1.4306074346407176012 1.4181298120701428811 1.2750321958274450918 0.63665911716959855404 0.63061251658191941338 1.2755723599920700817 1.4252926754996266823 1.439948085444581638 1.4399097491635446389 1.425264563739228052 1.275561558776966864 0.63064814333894547715 0.62658443072180913802 1.2756030733204044569 1.4306665758138936706 1.447026369585383776 1.4470288021547434987 1.4306478236278232785 1.2755912142438037282 0.62661072060509781512 0.62507230626266330198 1.2758991050390753319 1.4348866016513492916 1.4526348044583310415 1.4526562257210045015 1.4348797571568132625 1.275883403575773789 0.62508735096760137395 0.6196772338824413362 1.2727970409904851845 1.4340996466535060883 1.4528758503124168389 1.4529037052881121905 1.4341070847973074187 1.2727589188555736843 0.61968782544769906995 0.62799078184853540652 1.2786041117374367104 1.4369160762991262104 1.4556093154914031551 1.4555877257794287427 1.4368947899745343477 1.2785785531201361298 0.62800070465914514806 0.58773075613480463275 1.147246505001709771 1.2674958935402613758 1.276334133440686136 1.2763339391543100376 1.2674920714975643765 1.1472210568179157519 0.58772582170023623949 0.5847072971202601499 1.1492438433785356899 1.2728072369387504192 1.2826934020996736407 1.2827058266806445896 1.2728013902836521343 1.1492363739588897786 0.5847017683129661636 0.57366616225745703517 1.1450403427235720244 1.2750365801053760162 1.2871826294918056188 1.287209462317533859 1.2750461588987369588 1.1450393692771312359 0.57366528119381587913 0.56518000947291024971 1.1396241042202868154 1.2755531985250572191 1.2897826233515872207 1.2898385074462792588 1.2755730396917128733 1.1396233719297383935 0.56517764186628993706 0.55985579075447378106 1.1350695505862313794 1.2755843605200969382 1.2915288741665817973 1.2915647451198342122 1.2756062506042609161 1.1350690437687871448 0.55985321537465737585 0.55770126916260864824 1.1321294636586507476 1.2758836228380097122 1.2932833902567753004 1.293279820024223703 1.2758954855573982901 1.1321209460344940911 0.55770211858520357673 0.5543464001777996808 1.1275710334406041646 1.272782913152050055 1.2912260716568235708 1.2911763917487912856 1.2727695237301746012 1.1275699544738919666 0.55434771154762962908 0.56399127180996222464 1.135814997884596389 1.2785929096128447746 1.2973346262946063856 1.2973211506045181363 1.2785882608606087274 1.1358151722232974201 0.56399733778867733314 0.32307374894486146077 0.58771623038264997341 0.64447669708880395145 0.64994872016117954949 0.65004605743579813026 0.64453232398729609631 0.58773624673965763066 0.32306981436389714535 0.3168538608151766911 0.58469373534422508509 0.64394930047176968113 0.65034059550483380718 0.65046077812430858067 0.64401626689561486394 0.5847112603040767187 0.31684995994604875369 0.30456025778728712528 0.57365299959767490634 0.6365986841117117212 0.64447854507507307265 0.644640330182277288 0.63667339139653067459 0.57367417990054547783 0.30455431729492010717 0.29751914335479412443 0.5651690033542070557 0.63059980265879267414 0.63949238567226474039 0.63957704922958868998 0.63065896067501381328 0.56518519182533910605 0.29751447925271262696 0.29391861172122668577 0.55984720336770776861 0.62657824104828729883 0.63609366751333396017 0.63610576558232656552 0.62661542564571159897 0.55985918246343457927 0.29391944285895194033 0.29287739019027475562 0.55769421857222079009 0.62507117929460465078 0.63465883485269714015 0.63464238463030431259 0.62508862840616130629 0.55770712019231516443 0.29288258691683305424 0.29050717203662945742 0.55434015262973179716 0.61967446319669372556 0.62903885401693904189 0.62906399074284502504 0.61969042437900312414 0.55435239400559777057 0.29051406026204207311 0.2971812122270882095 0.5639884772963074111 0.62798597212079754204 0.63699626649901708308 0.63702231071606729707 0.62800504790809741351 0.56399912073527713741 0.29718814756561723334 
        </DataArray>
      </CellData>
      <Points>
        <DataArray Name="m" NumberOfComponents="3" type="Float32" format="ascii">
0 0 0 0.125 0 0 0.25 0 0 0.375 0 0 0.5 0 0 0.625 0 0 0.75 0 0 0.875 0 0 1 0 0 0 0.125 0 0.125 0.125 0 0.25 0.125 0 0.375 0.125 0 0.5 0.125 0 0.625 0.125 0 0.75 0.125 0 0.875 0.125 0 1 0.125 0 0 0.25 0 0.125 0.25 0 0.25 0.25 0 0.375 0.25 0 0.5 0.25 0 0.625 0.25 0 0.75 0.25 0 0.875 0.25 0 1 0.25 0 0 0.375 0 0.125 0.375 0 0.25 0.375 0 0.375 0.375 0 0.5 0.375 0 0.625 0.375 0 0.75 0.375 0 0.875 0.375 0 1 0.375 0 0 0.5 0 0.125 0.5 0 0.25 0.5 0 0.375 0.5 0 0.5 0.5 0 0.625 0.5 0 0.75 0.5 0 0.875 0.5 0 1 0.5 0 0 0.625 0 0.125 0.625 0 0.25 0.625 0 0.375 0.625 0 0.5 0.625 0 0.625 0.625 0 0.75 0.625 0 0.875 0.625 0 1 0.625 0 0 0.75 0 0.125 0.75 0 0.25 0.75 0 0.375 0.75 0 0.5 0.75 0 0.625 0.75 0 0.75 0.75 0 0.875 0.75 0 1 0.75 0 0 0.875 0 0.125 0.875 0 0.25 0.875 0 0.375 0.875 0 0.5 0.875 0 0.625 0.875 0 0.75 0.875 0 0.875 0.875 0 1 0.875 0 0 1 0 0.125 1 0 0.25 1 0 0.375 1 0 0.5 1 0 0.625 1 0 0.75 1 0 0.875 1 0 1 1 0 0 0 0.125 0.125 0 0.125 0.25 0 0.125 0.375 0 0.125 0.5 0 0.125 0.625 0 0.125 0.75 0 0.125 0.875 0 0.125 1 0 0.125 0 0.125 0.125 0.125 0.125 0.125 0.25 0.125 0.125 0.375 0.125 0.125 0.5 0.125 0.125 0.625 0.125 0.125 0.75 0.125 0.125 0.875 0.125 0.125 1 0.125 0.125 0 0.25 0.125 0.125 0.25 0.125 0.25 0.25 0.125 0.375 0.25 0.125 0.5 0.25 0.125 0.625 0.25 0.125 0.75 0.25 0.125 0.875 0.25 0.125 1 0.25 0.125 0 0.375 0.125 0.125 0.375 0.125 0.25 0.375 0.125 0.375 0.375 0.125 0.5 0.375 0.125 0.625 0.375 0.125 0.75 0.375 0.125 0.875 0.375 0.125 1 0.375 0.125 0 0.5 0.125 0.125 0.5 0.125 0.25 0.5 0.125 0.375 0.5 0.125 0.5 0.5 0.125 0.625 0.5 0.125 0.75 0.5 0.125 0.875 0.5 0.125 1 0.5 0.125 0 0.625 0.125 0.125 0.625 0.125 0.25 0.625 0.125 0.375 0.625 0.125 0.5 0.625 0.125 0.625 0.625 0.125 0.75 0.625 0.125 0.875 0.625 0.125 1 0.625 0.125 0 0.75 0.125 0.125 0.75 0.125 0.25 0.75 0.125 0.375 0.75 0.125 0.5 0.75 0.125 0.625 0.75 0.125 0.75 0.75 0.125 0.875 0.75 0.125 1 0.75 0.125 0 0.875 0.125 0.125 0.875 0.125 0.25 0.875 0.125 0.375 0.875 0.125 0.5 0.875 0.125 0.625 0.875 0.125 0.75 0.875 0.125 0.875 0.875 0.125 1 0.875 0.125 0 1 0.125 0.125 1 0.125 0.25 1 0.125 0.375 1 0.125 0.5 1 0.125 0.625 1 0.125 0.75 1 0.125 0.875 1 0.125 1 1 0.125 0 0 0.25 0.125 0 0.25 0.25 0 0.25 0.375 0 0.25 0.5 0 0.25 0.625 0 0.25 0.75 0 0.25 0.875 0 0.25 1 0 0.25 0 0.125 0.25 0.125 0.125 0.25 0.25 0.125 0.25 0.375 0.125 0.25 0.5 0.125 0.25 0.625 0.125 0.25 0.75 0.125 0.25 0.875 0.125 0.25 1 0.125 0.25 0 0.25 0.25 0.125 0.25 0.25 0.25 0.25 0.25 0.375 0.25 0.25 0.5 0.25 0.25 0.625 0.25 0.25 0.75 0.25 0.25 0.875 0.25 0.25 1 0.25 0.25 0 0.375 0.25 0.125 0.375 0.25 0.25 0.375 0.25 0.375 0.375 0.25 0.5 0.375 0.25 0.625 0.375 0.25 0.75 0.375 0.25 0.875 0.375 0.25 1 0.375 0.25 0 0.5 0.25 0.125 0.5 0.25 0.25 0.5 0.25 0.375 0.5 0.25 0.5 0.5 0.25 0.625 0.5 0.25 0.75 0.5 0.25 0.875 0.5 0.25 1 0.5 0.25 0 0.625 0.25 0.125 0.625 0.25 0.25 0.625 0.25 0.375 0.625 0.25 0.5 0.625 0.25 0.625 0.625 0.25 0.75 0.625 0.25 0.875 0.625 0.25 1 0.625 0.25 0 0.75 0.25 0.125 0.75 0.25 0.25 0.75 0.25 0.375 0.75 0.25 0.5 0.75 0.25 0.625 0.75 0.25 0.75 0.75 0.25 0.875 0.75 0.25 1 0.75 0.25 0 0.875 0.25 0.125 0.875 0.25 0.25 0.875 0.25 0.375 0.875 0.25 0.5 0.875 0.25 0.625 0.875 0.25 0.75 0.875 0.25 0.875 0.875 0.25 1 0.875 0.25 0 1 0.25 0.125 1 0.25 0.25 1 0.25 0.375 1 0.25 0.5 1 0.25 0.625 1 0.25 0.75 1 0.25 0.875 1 0.25 1 1 0.25 0 0 0.375 0.125 0 0.375 0.25 0 0.375 0.375 0 0.375 0.5 0 0.375 0.625 0 0.375 0.75 0 0.375 0.875 0 0.375 1 0 0.375 0 0.125 0.375 0.125 0.125 0.375 0.25 0.125 0.375 0.375 0.125 0.375 0.5 0.125 0.375 0.625 0.125 0.375 0.75 0.125 0.375 0.875 0.125 0.375 1 0.125 0.375 0 0.25 0.375 0.125 0.25 0.375 0.25 0.25 0.375 0.375 0.25 0.375 0.5 0.25 0.375 0.625 0.25 0.375 0.75 0.25 0.375 0.875 0.25 0.375 1 0.25 0.375 0 0.375 0.375 0.125 0.375 0.375 0.25 0.375 0.375 0.375 0.375 0.375 0.5 0.375 0.375 0.625 0.375 0.375 0.75 0.375 0.375 0.875 0.375 0.375 1 0.375 0.375 0 0.5 0.375 0.125 0.5 0.375 0.25 0.5 0.375 0.375 0.5 0.375 0.5 0.5 0.375 0.625 0.5 0.375 0.75 0.5 0.375 0.875 0.5 0.375 1 0.5 0.375 0 0.625 0.375 0.125 0.625 0.375 0.25 0.625 0.375 0.375 0.625 0.375 0.5 0.625 0.375 0.625 0.625 0.375 0.75 0.625 0.375 0.875 0.625 0.375 1 0.625 0.375 0 0.75 0.375 0.125 0.75 0.375 0.25 0.75 0.375 0.375 0.75 0.375 0.5 0.75 0.375 0.625 0.75 0.375 0.75 0.75 0.375 0.875 0.75 0.375 1 0.75 0.375 0 0.875 0.375 0.125 0.875 0.375 0.25 0.875 0.375 0.375 0.875 0.375 0.5 0.875 0.375 0.625 0.875 0.375 0.75 0.875 0.375 0.875 0.875 0.375 1 0.875 0.375 0 1 0.375 0.125 1 0.375 0.25 1 0.375 0.375 1 0.375 0.5 1 0.375 0.625 1 0.375 0.75 1 0.375 0.875 1 0.375 1 1 0.375 0 0 0.5 0.125 0 0.5 0.25 0 0.5 0.375 0 0.5 0.5 0 0.5 0.625 0 0.5 0.75 0 0.5 0.875 0 0.5 1 0 0.5 0 0.125 0.5 0.125 0.125 0.5 0.25 0.125 0.5 0.375 0.125 0.5 0.5 0.125 0.5 0.625 0.125 0.5 0.75 0.125 0.5 0.875 0.125 0.5 1 0.125 0.5 0 0.25 0.5 0.125 0.25 0.5 0.25 0.25 0.5 0.375 0.25 0.5 0.5 0.25 0.5 0.625 0.25 0.5 0.75 0.25 0.5 0.875 0.25 0.5 1 0.25 0.5 0 0.375 0.5 0.125 0.375 0.5 0.25 0.375 0.5 0.375 0.375 0.5 0.5 0.375 0.5 0.625 0.375 0.5 0.75 0.375 0.5 0.875 0.375 0.5 1 0.375 0.5 0 0.5 0.5 0.125 0.5 0.5 0.25 0.5 0.5 0.375 0.5 0.5 0.5 0.5 0.5 0.625 0.5 0.5 0.75 0.5 0.5 0.875 0.5 0.5 1 0.5 0.5 0 0.625 0.5 0.125 0.625 0.5 0.25 0.625 0.5 0.375 0.625 0.5 0.5 0.625 0.5 0.625 0.625 0.5 0.75 0.625 0.5 0.875 0.625 0.5 1 0.625 0.5 0 0.75 0.5 0.125 0.75 0.5 0.25 0.75 0.5 0.375 0.75 0.5 0.5 0.75 0.5 0.625 0.75 0.5 0.75 0.75 0.5 0.875 0.75 0.5 1 0.75 0.5 0 0.875 0.5 0.125 0.875 0.5 0.25 0.875 0.5 0.375 0.875 0.5 0.5 0.875 0.5 0.625 0.875 0.5 0.75 0.875 0.5 0.875 0.875 0.5 1 0.875 0.5 0 1 0.5 0.125 1 0.5 0.25 1 0.5 0.375 1 0.5 0.5 1 0.5 0.625 1 0.5 0.75 1 0.5 0.875 1 0.5 1 1 0.5 0 0 0.625 0.125 0 0.625 0.25 0 0.625 0.375 0 0.625 0.5 0 0.625 0.625 0 0.625 0.75 0 0.625 0.875 0 0.625 1 0 0.625 0 0.125 0.625 0.125 0.125 0.625 0.25 0.125 0.625 0.375 0.125 0.625 0.5 0.125 0.625 0.625 0.125 0.625 0.75 0.125 0.625 0.875 0.125 0.625 1 0.125 0.625 0 0.25 0.625 0.125 0.25 0.625 0.25 0.25 0.625 0.375 0.25 0.625 0.5 0.25 0.625 0.625 0.25 0.625 0.75 0.25 0.625 0.875 0.25 0.625 1 0.25 0.625 0 0.375 0.625 0.125 0.375 0.625 0.25 0.375 0.625 0.375 0.375 0.625 0.5 0.375 0.625 0.625 0.375 0.625 0.75 0.375 0.625 0.875 0.375 0.625 1 0.375 0.625 0 0.5 0.625 0.125 0.5 0.625 0.25 0.5 0.625 0.375 0.5 0.625 0.5 0.5 0.625 0.625 0.5 0.625 0.75 0.5 0.625 0.875 0.5 0.625 1 0.5 0.625 0 0.625 0.625 0.125 0.625 0.625 0.25 0.625 0.625 0.375 0.625 0.625 0.5 0.625 0.625 0.625 0.625 0.625 0.75 0.625 0.625 0.875 0.625 0.625 1 0.625 0.625 0 0.75 0.625 0.125 0.75 0.625 0.25 0.75 0.625 0.375 0.75 0.625 0.5 0.75 0.625 0.625 0.75 0.625 0.75 0.75 0.625 0.875 0.75 0.625 1 0.75 0.625 0 0.875 0.625 0.125 0.875 0.625 0.25 0.875 0.625 0.375 0.875 0.625 0.5 0.875 0.625 0.625 0.875 0.625 0.75 0.875 0.625 0.875 0.875 0.625 1 0.875 0.625 0 1 0.625 0.125 1 0.625 0.25 1 0.625 0.375 1 0.625 0.5 1 0.625 0.625 1 0.625 0.75 1 0.625 0.875 1 0.625 1 1 0.625 0 0 0.75 0.125 0 0.75 0.25 0 0.75 0.375 0 0.75 0.5 0 0.75 0.625 0 0.75 0.75 0 0.75 0.875 0 0.75 1 0 0.75 0 0.125 0.75 0.125 0.125 0.75 0.25 0.125 0.75 0.375 0.125 0.75 0.5 0.125 0.75 0.625 0.125 0.75 0.75 0.125 0.75 0.875 0.125 0.75 1 0.125 0.75 0 0.25 0.75 0.125 0.25 0.75 0.25 0.25 0.75 0.375 0.25 0.75 0.5 0.25 0.75 0.625 0.25 0.75 0.75 0.25 0.75 0.875 0.25 0.75 1 0.25 0.75 0 0.375 0.75 0.125 0.375 0.75 0.25 0.375 0.75 0.375 0.375 0.75 0.5 0.375 0.75 0.625 0.375 0.75 0.75 0.375 0.75 0.875 0.375 0.75 1 0.375 0.75 0 0.5 0.75 0.125 0.5 0.75 0.25 0.5 0.75 0.375 0.5 0.75 0.5 0.5 0.75 0.625 0.5 0.75 0.75 0.5 0.75 0.875 0.5 0.75 1 0.5 0.75 0 0.625 0.75 0.125 0.625 0.75 0.25 0.625 0.75 0.375 0.625 0.75 0.5 0.625 0.75 0.625 0.625 0.75 0.75 0.625 0.75 0.875 0.625 0.75 1 0.625 0.75 0 0.75 0.75 0.125 0.75 0.75 0.25 0.75 0.75 0.375 0.75 0.75 0.5 0.75 0.75 0.625 0.75 0.75 0.75 0.75 0.75 0.875 0.75 0.75 1 0.75 0.75 0 0.875 0.75 0.125 0.875 0.75 0.25 0.875 0.75 0.375 0.875 0.75 0.5 0.875 0.75 0.625 0.875 0.75 0.75 0.875 0.75 0.875 0.875 0.75 1 0.875 0.75 0 1 0.75 0.125 1 0.75 0.25 1 0.75 0.375 1 0.75 0.5 1 0.75 0.625 1 0.75 0.75 1 0.75 0.875 1 0.75 1 1 0.75 0 0 0.875 0.125 0 0.875 0.25 0 0.875 0.375 0 0.875 0.5 0 0.875 0.625 0 0.875 0.75 0 0.875 0.875 0 0.875 1 0 0.875 0 0.125 0.875 0.125 0.125 0.875 0.25 0.125 0.875 0.375 0.125 0.875 0.5 0.125 0.875 0.625 0.125 0.875 0.75 0.125 0.875 0.875 0.125 0.875 1 0.125 0.875 0 0.25 0.875 0.125 0.25 0.875 0.25 0.25 0.875 0.375 0.25 0.875 0.5 0.25 0.875 0.625 0.25 0.875 0.75 0.25 0.875 0.875 0.25 0.875 1 0.25 0.875 0 0.375 0.875 0.125 0.375 0.875 0.25 0.375 0.875 0.375 0.375 0.875 0.5 0.375 0.875 0.625 0.375 0.875 0.75 0.375 0.875 0.875 0.375 0.875 1 0.375 0.875 0 0.5 0.875 0.125 0.5 0.875 0.25 0.5 0.875 0.375 0.5 0.875 0.5 0.5 0.875 0.625 0.5 0.875 0.75 0.5 0.875 0.875 0.5 0.875 1 0.5 0.875 0 0.625 0.875 0.125 0.625 0.875 0.25 0.625 0.875 0.375 0.625 0.875 0.5 0.625 0.875 0.625 0.625 0.875 0.75 0.625 0.875 0.875 0.625 0.875 1 0.625 0.875 0 0.75 0.875 0.125 0.75 0.875 0.25 0.75 0.875 0.375 0.75 0.875 0.5 0.75 0.875 0.625 0.75 0.875 0.75 0.75 0.875 0.875 0.75 0.875 1 0.75 0.875 0 0.875 0.875 0.125 0.875 0.875 0.25 0.875 0.875 0.375 0.875 0.875 0.5 0.875 0.875 0.625 0.875 0.875 0.75 0.875 0.875 0.875 0.875 0.875 1 0.875 0.875 0 1 0.875 0.125 1 0.875 0.25 1 0.875 0.375 1 0.875 0.5 1 0.875 0.625 1 0.875 0.75 1 0.875 0.875 1 0.875 1 1 0.875 0 0 1 0.125 0 1 0.25 0 1 0.375 0 1 0.5 0 1 0.625 0 1 0.75 0 1 0.875 0 1 1 0 1 0 0.125 1 0.125 0.125 1 0.25 0.125 1 0.375 0.125 1 0.5 0.125 1 0.625 0.125 1 0.75 0.125 1 0.875 0.125 1 1 0.125 1 0 0.25 1 0.125 0.25 1 0.25 0.25 1 0.375 0.25 1 0.5 0.25 1 0.625 0.25 1 0.75 0.25 1 0.875 0.25 1 1 0.25 1 0 0.375 1 0.125 0.375 1 0.25 0.375 1 0.375 0.375 1 0.5 0.375 1 0.625 0.375 1 0.75 0.375 1 0.875 0.375 1 1 0.375 1 0 0.5 1 0.125 0.5 1 0.25 0.5 1 0.375 0.5 1 0.5 0.5 1 0.625 0.5 1 0.75 0.5 1 0.875 0.5 1 1 0.5 1 0 0.625 1 0.125 0.625 1 0.25 0.625 1 0.375 0.625 1 0.5 0.625 1 0.625 0.625 1 0.75 0.625 1 0.875 0.625 1 1 0.625 1 0 0.75 1 0.125 0.75 1 0.25 0.75 1 0.375 0.75 1 0.5 0.75 1 0.625 0.75 1 0.75 0.75 1 0.875 0.75 1 1 0.75 1 0 0.875 1 0.125 0.875 1 0.25 0.875 1 0.375 0.875 1 0.5 0.875 1 0.625 0.875 1 0.75 0.875 1 0.875 0.875 1 1 0.875 1 0 1 1 0.125 1 1 0.25 1 1 0.375 1 1 0.5 1 1 0.625 1 1 0.75 1 1 0.875 1 1 1 1 1         </DataArray>
      </Points>
    </Piece>
  </StructuredGrid>
</VTKFile>
