<?xml version="1.0"?>
<VTKFile type="StructuredGrid" version="0.1" byte_order="LittleEndian">
  <StructuredGrid WholeExtent="0 8 0 8 0 8">
    <Piece Extent="0 8 0 8 0 8">
      <PointData>
      </PointData>
      <CellData>
        <DataArray Name="vy" NumberOfComponents="1" type="Float32" format="ascii">
0.41336865523946236811 0.68395200944746936678 0.70760357423508413177 0.69454151922736340197 0.69455238103682337414 0.7076140326937500058 0.68395683958011721515 0.4133697290736471075 0.39971246716464914339 0.6780230191212978097 0.70315432530781851739 0.68999266630564859426 0.68998674343899102368 0.70316444067516514771 0.67802662323785878318 0.39971654824777602677 0.36793352000202045327 0.65299898095141206689 0.68507892401252468151 0.67427190156301775037 0.67428562690377735755 0.68508554752340311556 0.65300301971412022528 0.36793611250903013321 0.34239459261281485203 0.62701608001917319424 0.66758913092010707668 0.66035799310723686251 0.66032571124511985072 0.66759417532856979438 0.62702273979589551178 0.34239444402595359263 0.32418835735877693516 0.60481520778533048865 0.6534499555713619845 0.65003645647229846283 0.65003923261460638816 0.65346034106011097187 0.60482240477983806315 0.3241872451584015824 0.3112406871759565985 0.58705573762532248239 0.64257645819065967174 0.64298807966104687406 0.64300394222241219477 0.64258920953197040671 0.58706319577106735874 0.31123913132595110165 0.2992833852737319944 0.57084971523459926424 0.6312854731795167762 0.63447200986837493097 0.63443734006120622304 0.63128723041917134129 0.57085324440221218989 0.29928192296166122865 0.29779733571437533302 0.56858002080146130552 0.63057377025311112106 0.63667766449739371382 0.63670522114132088731 0.63057803187363958841 0.56858826356135583335 0.29779145266944412329 0.68395428173884309508 1.2030488929395948272 1.2610331971916479699 1.2420401356731385345 1.2420414448729153456 1.2610447856186304261 1.2030436615312596338 0.68395607904811062117 0.67802677002389799554 1.2111668117997822502 1.2707770296260862963 1.2513023632844997302 1.251320468195489255 1.2707831377114233717 1.2111678013676376864 0.67802608313071710544 0.65299952378565151445 1.2104447535038382888 1.2800692649178200266 1.262526070471480244 1.262528008527181056 1.2800856430028004773 1.2104416072929615744 0.653000711010964352 0.62701797941752368537 1.2035057440983596422 1.2870106609917697504 1.2726931053254688653 1.2727155485227545917 1.2870160388003268892 1.2035145336376247283 0.62701640507988998241 0.60481962400039535055 1.1931177071876075679 1.2913090433374723176 1.2808240231345267013 1.2808252643192832299 1.2913236908873175768 1.1931212063148168845 0.60481690233923735001 0.58706330523342820094 1.180898641935749005 1.293470090425722141 1.2874924737142814379 1.2875201612345643642 1.2934887990591799056 1.1808953247844464762 0.58705533663685838253 0.57085950893784143112 1.1659681787601674507 1.2908852493095144265 1.2891252464829732194 1.289161765613785926 1.2909141495452272075 1.1659703086974435582 0.57084482066399400146 0.56859009062546073121 1.161084211548625289 1.2953062214552981679 1.299157138340088169 1.2991950591363501388 1.2953351968586881426 1.161086464830617615 0.56857732125326410078 0.7076038196932171731 1.2610349805504439402 1.3176803241514534193 1.2936843785053746547 1.2936915593257594104 1.3176732020097445819 1.261038865125688968 0.70761200873311247417 0.70315370819983702422 1.2707780936837500541 1.3294259401959367395 1.3050584794026023339 1.3050446999592699715 1.3294217272313517686 1.2707792642505406633 0.7031685576502372248 0.68508236666679600546 1.2800682254981781139 1.3506466675934096777 1.3287989991518687205 1.328803544518072588 1.3506408311399284994 1.2800769556094822033 0.68509070710760533451 0.66759371265586742172 1.2870054709980474072 1.3735901336360949454 1.3555901570085648888 1.3555809089410411072 1.3735870361387032546 1.2870218734168510366 0.66759434697602904052 0.65345501304918429675 1.2913129199961035365 1.3941580867319356418 1.3803041281327335099 1.3803119847273004339 1.3941575962864598548 1.2913140384503631886 0.65345408292188200683 0.64258482016806450776 1.2934689394599758749 1.411926237669137274 1.4025517945476879689 1.4025388590616716389 1.4119233458395139547 1.293481444146412418 0.64257667716592503648 0.63128672953344644458 1.2908962899218303644 1.4227812682374358921 1.417434397994788986 1.4174249332795427758 1.422772359263818398 1.2908945566819094442 0.63128278595085351999 0.63057699865115213189 1.2953208260455488787 1.4377255146708780575 1.4366918557802821343 1.4367086203180965409 1.4377355326837915062 1.2953124399622357732 0.63057053017479214319 0.69453642388787018014 1.2420390824044083011 1.2936835543928908443 1.2668304360681970078 1.266826009485984228 1.2936896170072655909 1.2420490320670487527 0.6945494838310011243 0.68997774074249762499 1.2513037009814722555 1.3050529867444198295 1.2777536164623330972 1.2777551486499048039 1.305059751694302328 1.2513072114987211503 0.6900211031520513405 0.67428072972416075448 1.2625140975047626224 1.3288005067880015453 1.304292926246799933 1.3042886658596393179 1.3288086990715954894 1.2625248929580163981 0.67430783465784938091 0.66035306173934449347 1.2726932486662501098 1.3555859471384439363 1.3353233872003307248 1.3353271410501343919 1.3555865259559696234 1.2727013299635041577 0.66036694678963103744 0.6500370777813589962 1.2808237010917649101 1.3802982268684251821 1.364632202346538481 1.3646217826877296009 1.3803106480710110038 1.2808284641642913027 0.65004323518499451673 0.64299059165530991766 1.2874989643441621112 1.4025497606394359273 1.3917492045775576859 1.3917524392595526095 1.4025436210495052514 1.2875148688409636666 0.64298482729480777031 0.63443631338751382831 1.2891460211566205807 1.417422351383846868 1.4110687677254785122 1.4110522817442259225 1.4174321132969602832 1.2891402561097455859 0.63445842911828520538 0.63666742015472665983 1.2991579362123242269 1.4366977694724558656 1.4348937565245427628 1.4348831974697706659 1.4367055990339789862 1.2991673462279798024 0.63669749462643654425 0.69455422449194348378 1.2420476602420174039 1.2936898426343252932 1.2668297126242129558 1.266831108321787136 1.2936874248127427922 1.2420390918648902545 0.69454168668324423042 0.69000234079448419244 1.2513127818174698547 1.3050545919678251394 1.2777602887099170914 1.2777600919806666457 1.3050470027565299613 1.2513166821817993668 0.68995689102810409121 0.67428014719899920237 1.2625317400246993671 1.3288048527909936958 1.3042877755465933642 1.3042911850977376709 1.3287958129084957992 1.2625323687412559615 0.67425048466959192073 0.66032987219284211555 1.2727222733290239898 1.3555765907802777015 1.3353296028792567274 1.335324628868063801 1.3555855937666105859 1.2727088919794864452 0.66031933818294596961 0.65003583766322636794 1.2808299288188471632 1.3803135867602289721 1.3646231365300354188 1.3646269662688923496 1.3803008500765365785 1.2808294941674409628 0.65003481628483217314 0.64299714710196365086 1.2875209098347217829 1.4025335309924960026 1.3917567683704925585 1.3917541541870233068 1.4025323944256629094 1.2875101522512930607 0.64301106241209593506 0.63446973723296706815 1.2891448075768767723 1.4174337976059869781 1.4110587234532780965 1.4110531815994331595 1.4174296418176650647 1.2891507819270280333 0.63445763593965609495 0.63671412766599266853 1.299192911913658266 1.4367005098633685023 1.4348881614018065278 1.4348918051027215181 1.4366897795534376847 1.2991963431890463099 0.63668960556646703175 0.70761301024825506989 1.2610404936407653143 1.3176794634709412257 1.2936864791799322916 1.2936880031207240727 1.3176867194083030643 1.2610338358841488571 0.70760307155535018264 0.70316326740110213223 1.2707858567627581259 1.3294200194057022024 1.3050537742922267981 1.3050573448904430052 1.3294291201730636942 1.2707822143428295636 0.70314733193040035442 0.68508321265242300147 1.2800839485019033237 1.3506432524245031157 1.3287993061555731789 1.3288079638590859499 1.350664545229849578 1.2800612932363701901 0.68507324069631059249 0.6675882761890387096 1.2870259398667009965 1.373585125179964006 1.355573374548690424 1.3555901553192031272 1.3735824928352136087 1.2870193509045095848 0.66758264686617496686 0.65345749925245288914 1.2913229189830606192 1.3941533529114300549 1.3802997379638359821 1.3803074072362733204 1.3941594928717391255 1.2913055371871724475 0.65346087920142892358 0.64258205669475809696 1.2934845800030927432 1.4119278082347110903 1.4025336722141583667 1.4025349242349360868 1.4119354213886559091 1.2934744195289804569 0.64258925105611552908 0.63128198217609254872 1.2909102781808345917 1.4227665231714372585 1.4174169777459106889 1.4174415427468831652 1.4227541496269953125 1.2909199273186771073 0.63129242159973830706 0.63057536196392338645 1.2953217328759212279 1.4377386258866151625 1.4367094970392262354 1.4366837883169292223 1.4377363597760175473 1.2953241874081502516 0.63058291670852661959 0.68395788689262182469 1.2030430485230840798 1.2610384138709342938 1.242048816818141832 1.2420444300936692716 1.2610317824020711441 1.2030526131868226614 0.68395282607877316838 0.67802816845986990657 1.2111636837000316902 1.2707822768463337137 1.2513035293724150687 1.2513139820255552159 1.2707829853322865077 1.2111637120739626727 0.67802308906584385362 0.65300636520422739029 1.2104426251032152084 1.2800754786878056901 1.2625251140425102214 1.262523861905841871 1.2800600385722420427 1.2104504160047568906 0.6530023566501842458 0.62701980621442410246 1.2035179928110586456 1.2870196783175513744 1.2727192322685947357 1.2726978184059001276 1.2870262605521634036 1.2034979895813697759 0.6270230360415377513 0.60481778949450004657 1.1931198935876521361 1.2913207667138641987 1.2808408084733671206 1.2808214661012831126 1.2913019135238588131 1.1931295309151381812 0.60481720109197467661 0.58705890573106112029 1.1808884439823668089 1.2934849775027243979 1.287520437199533907 1.287511797969815408 1.2934655236664147626 1.1808932134521379353 0.58706839487640838371 0.57084605065269888868 1.1659639368577530139 1.290909134269176084 1.2891648342778307956 1.2891300273137960009 1.2909125190663002236 1.1659565125808524222 0.57085952230126935092 0.56857752626124058448 1.1610816304991258274 1.2953280107675588795 1.2991703244768697534 1.2991920669918812781 1.2953097283308503407 1.1610954046665766803 0.56858786330975319423 0.4133677006494402284 0.68395999672341267761 0.70761355067202291735 0.69455078270338965751 0.69453712034914072415 0.70760074942413020427 0.68395222846986825083 0.41336615967008943917 0.39971656005301070547 0.67803060418565674894 0.70316902890317189989 0.69002316611596792306 0.6899554806942330698 0.70314506840384027875 0.6780238643496859785 0.39971167130843132664 0.36793327953659987761 0.65300818992022058307 0.68508919843789461979 0.67430734113350054848 0.67425431298852045447 0.68507585426911798976 0.65299876590808692001 0.36793160083015619133 0.34239434783279409924 0.62702113835137140985 0.66759383022335760938 0.66034682821437251654 0.66033867544968583019 0.66758184169894563276 0.62701726823040160319 0.34239465368626709196 0.32418578581401552574 0.60482004690673496494 0.65346039633236574495 0.65002917673858695569 0.65004609349873143653 0.6534567834755077298 0.60481385741017923419 0.32418917802089985969 0.3112352491158471568 0.58706436709561360399 0.64258689290215398326 0.64300072117920392678 0.64299087706998714342 0.6425802508806542912 0.58706264202103486394 0.31123787808597158655 0.29928044947158372047 0.57085234208491419938 0.63128527959304747696 0.63444874147837471146 0.63446406507730501723 0.63128593323024850825 0.5708546000930542208 0.29928373822440507146 0.29779042345301198758 0.5685823335530404421 0.63057110872237331911 0.63668693172705337346 0.63669888062826396347 0.63058288063721823491 0.56858218733212595453 0.29779539539932037284 
        </DataArray>
      </CellData>
      <Points>
        <DataArray Name="m" NumberOfComponents="3" type="Float32" format="ascii">
0 0 0 0.125 0 0 0.25 0 0 0.375 0 0 0.5 0 0 0.625 0 0 0.75 0 0 0.875 0 0 1 0 0 0 0.125 0 0.125 0.125 0 0.25 0.125 0 0.375 0.125 0 0.5 0.125 0 0.625 0.125 0 0.75 0.125 0 0.875 0.125 0 1 0.125 0 0 0.25 0 0.125 0.25 0 0.25 0.25 0 0.375 0.25 0 0.5 0.25 0 0.625 0.25 0 0.75 0.25 0 0.875 0.25 0 1 0.25 0 0 0.375 0 0.125 0.375 0 0.25 0.375 0 0.375 0.375 0 0.5 0.375 0 0.625 0.375 0 0.75 0.375 0 0.875 0.375 0 1 0.375 0 0 0.5 0 0.125 0.5 0 0.25 0.5 0 0.375 0.5 0 0.5 0.5 0 0.625 0.5 0 0.75 0.5 0 0.875 0.5 0 1 0.5 0 0 0.625 0 0.125 0.625 0 0.25 0.625 0 0.375 0.625 0 0.5 0.625 0 0.625 0.625 0 0.75 0.625 0 0.875 0.625 0 1 0.625 0 0 0.75 0 0.125 0.75 0 0.25 0.75 0 0.375 0.75 0 0.5 0.75 0 0.625 0.75 0 0.75 0.75 0 0.875 0.75 0 1 0.75 0 0 0.875 0 0.125 0.875 0 0.25 0.875 0 0.375 0.875 0 0.5 0.875 0 0.625 0.875 0 0.75 0.875 0 0.875 0.875 0 1 0.875 0 0 1 0 0.125 1 0 0.25 1 0 0.375 1 0 0.5 1 0 0.625 1 0 0.75 1 0 0.875 1 0 1 1 0 0 0 0.125 0.125 0 0.125 0.25 0 0.125 0.375 0 0.125 0.5 0 0.125 0.625 0 0.125 0.75 0 0.125 0.875 0 0.125 1 0 0.125 0 0.125 0.125 0.125 0.125 0.125 0.25 0.125 0.125 0.375 0.125 0.125 0.5 0.125 0.125 0.625 0.125 0.125 0.75 0.125 0.125 0.875 0.125 0.125 1 0.125 0.125 0 0.25 0.125 0.125 0.25 0.125 0.25 0.25 0.125 0.375 0.25 0.125 0.5 0.25 0.125 0.625 0.25 0.125 0.75 0.25 0.125 0.875 0.25 0.125 1 0.25 0.125 0 0.375 0.125 0.125 0.375 0.125 0.25 0.375 0.125 0.375 0.375 0.125 0.5 0.375 0.125 0.625 0.375 0.125 0.75 0.375 0.125 0.875 0.375 0.125 1 0.375 0.125 0 0.5 0.125 0.125 0.5 0.125 0.25 0.5 0.125 0.375 0.5 0.125 0.5 0.5 0.125 0.625 0.5 0.125 0.75 0.5 0.125 0.875 0.5 0.125 1 0.5 0.125 0 0.625 0.125 0.125 0.625 0.125 0.25 0.625 0.125 0.375 0.625 0.125 0.5 0.625 0.125 0.625 0.625 0.125 0.75 0.625 0.125 0.875 0.625 0.125 1 0.625 0.125 0 0.75 0.125 0.125 0.75 0.125 0.25 0.75 0.125 0.375 0.75 0.125 0.5 0.75 0.125 0.625 0.75 0.125 0.75 0.75 0.125 0.875 0.75 0.125 1 0.75 0.125 0 0.875 0.125 0.125 0.875 0.125 0.25 0.875 0.125 0.375 0.875 0.125 0.5 0.875 0.125 0.625 0.875 0.125 0.75 0.875 0.125 0.875 0.875 0.125 1 0.875 0.125 0 1 0.125 0.125 1 0.125 0.25 1 0.125 0.375 1 0.125 0.5 1 0.125 0.625 1 0.125 0.75 1 0.125 0.875 1 0.125 1 1 0.125 0 0 0.25 0.125 0 0.25 0.25 0 0.25 0.375 0 0.25 0.5 0 0.25 0.625 0 0.25 0.75 0 0.25 0.875 0 0.25 1 0 0.25 0 0.125 0.25 0.125 0.125 0.25 0.25 0.125 0.25 0.375 0.125 0.25 0.5 0.125 0.25 0.625 0.125 0.25 0.75 0.125 0.25 0.875 0.125 0.25 1 0.125 0.25 0 0.25 0.25 0.125 0.25 0.25 0.25 0.25 0.25 0.375 0.25 0.25 0.5 0.25 0.25 0.625 0.25 0.25 0.75 0.25 0.25 0.875 0.25 0.25 1 0.25 0.25 0 0.375 0.25 0.125 0.375 0.25 0.25 0.375 0.25 0.375 0.375 0.25 0.5 0.375 0.25 0.625 0.375 0.25 0.75 0.375 0.25 0.875 0.375 0.25 1 0.375 0.25 0 0.5 0.25 0.125 0.5 0.25 0.25 0.5 0.25 0.375 0.5 0.25 0.5 0.5 0.25 0.625 0.5 0.25 0.75 0.5 0.25 0.875 0.5 0.25 1 0.5 0.25 0 0.625 0.25 0.125 0.625 0.25 0.25 0.625 0.25 0.375 0.625 0.25 0.5 0.625 0.25 0.625 0.625 0.25 0.75 0.625 0.25 0.875 0.625 0.25 1 0.625 0.25 0 0.75 0.25 0.125 0.75 0.25 0.25 0.75 0.25 0.375 0.75 0.25 0.5 0.75 0.25 0.625 0.75 0.25 0.75 0.75 0.25 0.875 0.75 0.25 1 0.75 0.25 0 0.875 0.25 0.125 0.875 0.25 0.25 0.875 0.25 0.375 0.875 0.25 0.5 0.875 0.25 0.625 0.875 0.25 0.75 0.875 0.25 0.875 0.875 0.25 1 0.875 0.25 0 1 0.25 0.125 1 0.25 0.25 1 0.25 0.375 1 0.25 0.5 1 0.25 0.625 1 0.25 0.75 1 0.25 0.875 1 0.25 1 1 0.25 0 0 0.375 0.125 0 0.375 0.25 0 0.375 0.375 0 0.375 0.5 0 0.375 0.625 0 0.375 0.75 0 0.375 0.875 0 0.375 1 0 0.375 0 0.125 0.375 0.125 0.125 0.375 0.25 0.125 0.375 0.375 0.125 0.375 0.5 0.125 0.375 0.625 0.125 0.375 0.75 0.125 0.375 0.875 0.125 0.375 1 0.125 0.375 0 0.25 0.375 0.125 0.25 0.375 0.25 0.25 0.375 0.375 0.25 0.375 0.5 0.25 0.375 0.625 0.25 0.375 0.75 0.25 0.375 0.875 0.25 0.375 1 0.25 0.375 0 0.375 0.375 0.125 0.375 0.375 0.25 0.375 0.375 0.375 0.375 0.375 0.5 0.375 0.375 0.625 0.375 0.375 0.75 0.375 0.375 0.875 0.375 0.375 1 0.375 0.375 0 0.5 0.375 0.125 0.5 0.375 0.25 0.5 0.375 0.375 0.5 0.375 0.5 0.5 0.375 0.625 0.5 0.375 0.75 0.5 0.375 0.875 0.5 0.375 1 0.5 0.375 0 0.625 0.375 0.125 0.625 0.375 0.25 0.625 0.375 0.375 0.625 0.375 0.5 0.625 0.375 0.625 0.625 0.375 0.75 0.625 0.375 0.875 0.625 0.375 1 0.625 0.375 0 0.75 0.375 0.125 0.75 0.375 0.25 0.75 0.375 0.375 0.75 0.375 0.5 0.75 0.375 0.625 0.75 0.375 0.75 0.75 0.375 0.875 0.75 0.375 1 0.75 0.375 0 0.875 0.375 0.125 0.875 0.375 0.25 0.875 0.375 0.375 0.875 0.375 0.5 0.875 0.375 0.625 0.875 0.375 0.75 0.875 0.375 0.875 0.875 0.375 1 0.875 0.375 0 1 0.375 0.125 1 0.375 0.25 1 0.375 0.375 1 0.375 0.5 1 0.375 0.625 1 0.375 0.75 1 0.375 0.875 1 0.375 1 1 0.375 0 0 0.5 0.125 0 0.5 0.25 0 0.5 0.375 0 0.5 0.5 0 0.5 0.625 0 0.5 0.75 0 0.5 0.875 0 0.5 1 0 0.5 0 0.125 0.5 0.125 0.125 0.5 0.25 0.125 0.5 0.375 0.125 0.5 0.5 0.125 0.5 0.625 0.125 0.5 0.75 0.125 0.5 0.875 0.125 0.5 1 0.125 0.5 0 0.25 0.5 0.125 0.25 0.5 0.25 0.25 0.5 0.375 0.25 0.5 0.5 0.25 0.5 0.625 0.25 0.5 0.75 0.25 0.5 0.875 0.25 0.5 1 0.25 0.5 0 0.375 0.5 0.125 0.375 0.5 0.25 0.375 0.5 0.375 0.375 0.5 0.5 0.375 0.5 0.625 0.375 0.5 0.75 0.375 0.5 0.875 0.375 0.5 1 0.375 0.5 0 0.5 0.5 0.125 0.5 0.5 0.25 0.5 0.5 0.375 0.5 0.5 0.5 0.5 0.5 0.625 0.5 0.5 0.75 0.5 0.5 0.875 0.5 0.5 1 0.5 0.5 0 0.625 0.5 0.125 0.625 0.5 0.25 0.625 0.5 0.375 0.625 0.5 0.5 0.625 0.5 0.625 0.625 0.5 0.75 0.625 0.5 0.875 0.625 0.5 1 0.625 0.5 0 0.75 0.5 0.125 0.75 0.5 0.25 0.75 0.5 0.375 0.75 0.5 0.5 0.75 0.5 0.625 0.75 0.5 0.75 0.75 0.5 0.875 0.75 0.5 1 0.75 0.5 0 0.875 0.5 0.125 0.875 0.5 0.25 0.875 0.5 0.375 0.875 0.5 0.5 0.875 0.5 0.625 0.875 0.5 0.75 0.875 0.5 0.875 0.875 0.5 1 0.875 0.5 0 1 0.5 0.125 1 0.5 0.25 1 0.5 0.375 1 0.5 0.5 1 0.5 0.625 1 0.5 0.75 1 0.5 0.875 1 0.5 1 1 0.5 0 0 0.625 0.125 0 0.625 0.25 0 0.625 0.375 0 0.625 0.5 0 0.625 0.625 0 0.625 0.75 0 0.625 0.875 0 0.625 1 0 0.625 0 0.125 0.625 0.125 0.125 0.625 0.25 0.125 0.625 0.375 0.125 0.625 0.5 0.125 0.625 0.625 0.125 0.625 0.75 0.125 0.625 0.875 0.125 0.625 1 0.125 0.625 0 0.25 0.625 0.125 0.25 0.625 0.25 0.25 0.625 0.375 0.25 0.625 0.5 0.25 0.625 0.625 0.25 0.625 0.75 0.25 0.625 0.875 0.25 0.625 1 0.25 0.625 0 0.375 0.625 0.125 0.375 0.625 0.25 0.375 0.625 0.375 0.375 0.625 0.5 0.375 0.625 0.625 0.375 0.625 0.75 0.375 0.625 0.875 0.375 0.625 1 0.375 0.625 0 0.5 0.625 0.125 0.5 0.625 0.25 0.5 0.625 0.375 0.5 0.625 0.5 0.5 0.625 0.625 0.5 0.625 0.75 0.5 0.625 0.875 0.5 0.625 1 0.5 0.625 0 0.625 0.625 0.125 0.625 0.625 0.25 0.625 0.625 0.375 0.625 0.625 0.5 0.625 0.625 0.625 0.625 0.625 0.75 0.625 0.625 0.875 0.625 0.625 1 0.625 0.625 0 0.75 0.625 0.125 0.75 0.625 0.25 0.75 0.625 0.375 0.75 0.625 0.5 0.75 0.625 0.625 0.75 0.625 0.75 0.75 0.625 0.875 0.75 0.625 1 0.75 0.625 0 0.875 0.625 0.125 0.875 0.625 0.25 0.875 0.625 0.375 0.875 0.625 0.5 0.875 0.625 0.625 0.875 0.625 0.75 0.875 0.625 0.875 0.875 0.625 1 0.875 0.625 0 1 0.625 0.125 1 0.625 0.25 1 0.625 0.375 1 0.625 0.5 1 0.625 0.625 1 0.625 0.75 1 0.625 0.875 1 0.625 1 1 0.625 0 0 0.75 0.125 0 0.75 0.25 0 0.75 0.375 0 0.75 0.5 0 0.75 0.625 0 0.75 0.75 0 0.75 0.875 0 0.75 1 0 0.75 0 0.125 0.75 0.125 0.125 0.75 0.25 0.125 0.75 0.375 0.125 0.75 0.5 0.125 0.75 0.625 0.125 0.75 0.75 0.125 0.75 0.875 0.125 0.75 1 0.125 0.75 0 0.25 0.75 0.125 0.25 0.75 0.25 0.25 0.75 0.375 0.25 0.75 0.5 0.25 0.75 0.625 0.25 0.75 0.75 0.25 0.75 0.875 0.25 0.75 1 0.25 0.75 0 0.375 0.75 0.125 0.375 0.75 0.25 0.375 0.75 0.375 0.375 0.75 0.5 0.375 0.75 0.625 0.375 0.75 0.75 0.375 0.75 0.875 0.375 0.75 1 0.375 0.75 0 0.5 0.75 0.125 0.5 0.75 0.25 0.5 0.75 0.375 0.5 0.75 0.5 0.5 0.75 0.625 0.5 0.75 0.75 0.5 0.75 0.875 0.5 0.75 1 0.5 0.75 0 0.625 0.75 0.125 0.625 0.75 0.25 0.625 0.75 0.375 0.625 0.75 0.5 0.625 0.75 0.625 0.625 0.75 0.75 0.625 0.75 0.875 0.625 0.75 1 0.625 0.75 0 0.75 0.75 0.125 0.75 0.75 0.25 0.75 0.75 0.375 0.75 0.75 0.5 0.75 0.75 0.625 0.75 0.75 0.75 0.75 0.75 0.875 0.75 0.75 1 0.75 0.75 0 0.875 0.75 0.125 0.875 0.75 0.25 0.875 0.75 0.375 0.875 0.75 0.5 0.875 0.75 0.625 0.875 0.75 0.75 0.875 0.75 0.875 0.875 0.75 1 0.875 0.75 0 1 0.75 0.125 1 0.75 0.25 1 0.75 0.375 1 0.75 0.5 1 0.75 0.625 1 0.75 0.75 1 0.75 0.875 1 0.75 1 1 0.75 0 0 0.875 0.125 0 0.875 0.25 0 0.875 0.375 0 0.875 0.5 0 0.875 0.625 0 0.875 0.75 0 0.875 0.875 0 0.875 1 0 0.875 0 0.125 0.875 0.125 0.125 0.875 0.25 0.125 0.875 0.375 0.125 0.875 0.5 0.125 0.875 0.625 0.125 0.875 0.75 0.125 0.875 0.875 0.125 0.875 1 0.125 0.875 0 0.25 0.875 0.125 0.25 0.875 0.25 0.25 0.875 0.375 0.25 0.875 0.5 0.25 0.875 0.625 0.25 0.875 0.75 0.25 0.875 0.875 0.25 0.875 1 0.25 0.875 0 0.375 0.875 0.125 0.375 0.875 0.25 0.375 0.875 0.375 0.375 0.875 0.5 0.375 0.875 0.625 0.375 0.875 0.75 0.375 0.875 0.875 0.375 0.875 1 0.375 0.875 0 0.5 0.875 0.125 0.5 0.875 0.25 0.5 0.875 0.375 0.5 0.875 0.5 0.5 0.875 0.625 0.5 0.875 0.75 0.5 0.875 0.875 0.5 0.875 1 0.5 0.875 0 0.625 0.875 0.125 0.625 0.875 0.25 0.625 0.875 0.375 0.625 0.875 0.5 0.625 0.875 0.625 0.625 0.875 0.75 0.625 0.875 0.875 0.625 0.875 1 0.625 0.875 0 0.75 0.875 0.125 0.75 0.875 0.25 0.75 0.875 0.375 0.75 0.875 0.5 0.75 0.875 0.625 0.75 0.875 0.75 0.75 0.875 0.875 0.75 0.875 1 0.75 0.875 0 0.875 0.875 0.125 0.875 0.875 0.25 0.875 0.875 0.375 0.875 0.875 0.5 0.875 0.875 0.625 0.875 0.875 0.75 0.875 0.875 0.875 0.875 0.875 1 0.875 0.875 0 1 0.875 0.125 1 0.875 0.25 1 0.875 0.375 1 0.875 0.5 1 0.875 0.625 1 0.875 0.75 1 0.875 0.875 1 0.875 1 1 0.875 0 0 1 0.125 0 1 0.25 0 1 0.375 0 1 0.5 0 1 0.625 0 1 0.75 0 1 0.875 0 1 1 0 1 0 0.125 1 0.125 0.125 1 0.25 0.125 1 0.375 0.125 1 0.5 0.125 1 0.625 0.125 1 0.75 0.125 1 0.875 0.125 1 1 0.125 1 0 0.25 1 0.125 0.25 1 0.25 0.25 1 0.375 0.25 1 0.5 0.25 1 0.625 0.25 1 0.75 0.25 1 0.875 0.25 1 1 0.25 1 0 0.375 1 0.125 0.375 1 0.25 0.375 1 0.375 0.375 1 0.5 0.375 1 0.625 0.375 1 0.75 0.375 1 0.875 0.375 1 1 0.375 1 0 0.5 1 0.125 0.5 1 0.25 0.5 1 0.375 0.5 1 0.5 0.5 1 0.625 0.5 1 0.75 0.5 1 0.875 0.5 1 1 0.5 1 0 0.625 1 0.125 0.625 1 0.25 0.625 1 0.375 0.625 1 0.5 0.625 1 0.625 0.625 1 0.75 0.625 1 0.875 0.625 1 1 0.625 1 0 0.75 1 0.125 0.75 1 0.25 0.75 1 0.375 0.75 1 0.5 0.75 1 0.625 0.75 1 0.75 0.75 1 0.875 0.75 1 1 0.75 1 0 0.875 1 0.125 0.875 1 0.25 0.875 1 0.375 0.875 1 0.5 0.875 1 0.625 0.875 1 0.75 0.875 1 0.875 0.875 1 1 0.875 1 0 1 1 0.125 1 1 0.25 1 1 0.375 1 1 0.5 1 1 0.625 1 1 0.75 1 1 0.875 1 1 1 1 1         </DataArray>
      </Points>
    </Piece>
  </StructuredGrid>
</VTKFile>
