<?xml version="1.0"?>
<VTKFile type="StructuredGrid" version="0.1" byte_order="LittleEndian">
  <StructuredGrid WholeExtent="0 8 0 8 0 8">
    <Piece Extent="0 8 0 8 0 8">
      <PointData>
      </PointData>
      <CellData>
        <DataArray Name="vy" NumberOfComponents="1" type="Float32" format="ascii">
0.32307113660198072402 0.58773058602964267649 0.64451929094117443864 0.65003107310869767677 0.6499604647822339043 0.6444890093302644285 0.58772366846423529374 0.32307268362154789587 0.31685136249135414932 0.58470587504022630831 0.64400322032778101189 0.65044385113885916372 0.65035248211102203442 0.64396277829722525787 0.58469934983790849969 0.31685317573766208499 0.30455527253216352346 0.5736698896709561124 0.63666089338450015944 0.64462317910506827801 0.64448900910403283948 0.63661057274941357242 0.57365987588679090425 0.30455905646275283072 0.29751551328191072621 0.56518202856763177788 0.6306483492057993745 0.63957023099975351954 0.63949564968248140406 0.63060927419224754864 0.56517500063511505459 0.29751908225540857345 0.29391967467079160858 0.55985543614779997856 0.62661225526722874601 0.63611127579278647914 0.63608659816035506562 0.6265816625006035423 0.5598520474025133753 0.29391842358856523632 0.29288199782417934092 0.55770302684705763685 0.62508680098836688632 0.63464887940249881115 0.63465039735969008827 0.62507390795687056695 0.55769885598150270578 0.29287707892466802173 0.29051378375722869407 0.5543481942409016483 0.61968483827059150926 0.62904990205357225186 0.6290518162864842111 0.61968094994130817899 0.55434517049388276622 0.2905072093748914952 0.29718846557053096857 0.56399798968386904985 0.62799928549225914054 0.63701338939933471739 0.63700507539880357744 0.62799325842375397499 0.56399079239431149091 0.29718184931992824849 0.58773124165115120388 1.1472248352248524128 1.2674858012324543566 1.2763337852039677855 1.2763363345631626444 1.2675013716321004154 1.1472452674614013191 0.58772380011841862668 0.5847067279191876521 1.1492376912167903136 1.2727925624017724093 1.2827036872425612302 1.2826962847385365851 1.2728148814772821673 1.1492451910241294755 0.58469934044499338732 0.57367037569595669133 1.1450415267401330421 1.2750326951617236837 1.2872028816561102982 1.2871855669858265347 1.2750494299231676099 1.145039913669595899 0.57366015704779105278 0.56518285465322171124 1.1396222134820426231 1.2755643489474246532 1.2898241452871277435 1.2897901113085392666 1.2755616996163232635 1.1396260841027310295 0.56517456165334789553 0.55985633772882437142 1.1350676229181966281 1.2755962310361348422 1.2915731656592284171 1.2915170310106023344 1.2755948761396758151 1.1350702953406379692 0.55985115639822280453 0.55770381939795898862 1.1321223494459891068 1.2758881736870384405 1.2932999255991570742 1.2932609844935021304 1.2758943619340319398 1.1321263742484790615 0.55769772204894618728 0.55434931347613269903 1.1275665320116565749 1.2727650172047908494 1.2911886138912485045 1.2912140469412838328 1.2727878552861067174 1.1275762809425466937 0.55434344373131050343 0.56399874624754753327 1.1358143107324880638 1.2785767057757113641 1.2973011204916169437 1.2973565417043166903 1.2786071300072512358 1.1358184078162045783 0.56398949821039656705 0.64452149657634871804 1.2674849292581495952 1.4007617568508179406 1.4098342821341034448 1.4098672774147069653 1.4007885074062411679 1.2675023132746148224 0.64448796413896902724 0.64400475389437983331 1.2727926798483573112 1.4091390839391266798 1.4191795027799467555 1.4192263697746352324 1.4091538330446384819 1.2728150516086798039 0.64396259995116800212 0.63666185516695505964 1.2750327414820361582 1.4181408649666153998 1.4305993155444209908 1.4306496301460163156 1.4181584122729307129 1.2750499057232749234 0.63661167172767052502 0.63065006662492173461 1.2755631367826707478 1.4252679433527379871 1.43990206807104415 1.4399556379606615053 1.4252951984138662045 1.2755636236658025595 0.63060846538255754812 0.62661297206347499333 1.2755978229482094477 1.4306472294655616651 1.4469973992209310687 1.4470558975794336476 1.4306695606471084847 1.2755940253510733573 0.62658049220449252292 0.62508747206962989029 1.2758883235309743664 1.4348811533828531584 1.4526190212884850794 1.4526722308533619454 1.4348861193200193043 1.2758948912462493297 0.62507134492016547256 0.61968396393236502284 1.2727667963915967331 1.4341063634218973455 1.4528841571842836533 1.4528940678777724216 1.4341031085255080413 1.2727866732098966907 0.61967884856475385913 0.62800030003560181058 1.278579976314091704 1.4368988526277524098 1.4555869507292524823 1.455611049699663706 1.4369143651661810956 1.2786039924048357985 0.62798884840732394075 0.65003308328695175167 1.2763340800816249665 1.4098334213552534688 1.4191600642283324074 1.419110022865786469 1.4098667827323265733 1.2763370153359478998 0.64995993267419371886 0.6504462522966321103 1.2827026769405704965 1.4191796784003807286 1.429528020703438429 1.4294691588269292648 1.4192250102013470592 1.2826980736174946607 0.65035223789044194209 0.64462247888577250965 1.2872020632149892005 1.430599266154704674 1.4434490185788906302 1.4433981126952875051 1.4306484133800418945 1.2871875398816920999 0.64449609561732779106 0.63957119561171305033 1.289825310209457454 1.4399010896355559641 1.4549363950284095459 1.454901920646562985 1.439955599318243129 1.289790375089681973 0.63949697864331300767 0.6361154153945657308 1.2915672691239057368 1.4470007975052654459 1.4636098258241689862 1.4635790282031047038 1.4470519248581557026 1.2915238479082544742 0.63608090796273331069 0.63464358025691935961 1.2932965432603924505 1.4526225144420070734 1.4704587739551058245 1.4704197774697740364 1.4526679122033328007 1.2932648571833356144 0.63465187435685888051 0.62904408965983826807 1.2911842198738030518 1.4528869311522265573 1.4715540395207546975 1.4715214471334012725 1.4528903031915301192 1.2912194914007026902 0.62905152286434051767 0.63701833732064139237 1.2973094248912351301 1.4555852764877217354 1.4737800696049778715 1.4737509904823853368 1.4556116245106935914 1.2973477706869933623 0.63698978690492502608 0.64996023293415228217 1.2763357321871071637 1.4098695734177766337 1.4191066286506353045 1.419162168536765245 1.4098344784533787255 1.2763323154236008161 0.65002944377265747811 0.65035157814384014774 1.2826979196866861166 1.4192267454087779122 1.4294664169545372445 1.429529699491050021 1.4191812342318204099 1.2827004431260271566 0.6504422197590754573 0.6444909815621836513 1.2871872627472920048 1.4306507906736609659 1.4433948147767574621 1.4434513055931723624 1.4306003542432101927 1.2871993504386607388 0.6446144323821046962 0.63949545900539694898 1.2897916797327451111 1.4399563645028052861 1.4549000057744552183 1.4549376112046872311 1.4399032249870076239 1.2898204741317311761 0.63956769552750447616 0.63608340467479307367 1.2915243007818404397 1.4470544345178342205 1.463576567539710549 1.4636118087206431149 1.4470000243537275431 1.2915642974677925547 0.63611539867759192557 0.63465623466345777448 1.2932656819381866953 1.4526697525588472271 1.4704197833374903492 1.4704582327303947764 1.4526227152190829273 1.293294006701459109 0.63464618310560627634 0.62905853470310324482 1.2912178872360882131 1.4528925921380380082 1.4715212278863145645 1.4715539516654525531 1.4528868081639989551 1.2911828552099258172 0.62904860344522139926 0.63700128618718254714 1.2973471243001630793 1.4556129343714998559 1.4737501193768822727 1.4737805703758044551 1.4555864597925729509 1.2973100126680896516 0.63702702962769286454 0.64448754493459081694 1.2675050000001892858 1.4007841722329352763 1.4098665488134340951 1.4098361145372981795 1.4007644713509821432 1.2674830249255728543 0.64452017882363676904 0.64396238732030353091 1.2728148506303680332 1.4091525408856819812 1.4192237512338925498 1.4191830090955348531 1.4091392069657482367 1.27279303401688626 0.64400306789518158013 0.63660947945470469644 1.27505137197115892 1.4181558876408739689 1.4306468977109303431 1.430602939677739327 1.4181423229005474251 1.2750310433165843449 0.63666059852032852451 0.63060692075754853914 1.2755622975109575101 1.4252959829777782641 1.4399480601510548095 1.439910475384796662 1.4252664572720350478 1.2755635250283585691 0.63064993430810201147 0.62657961454680455304 1.2755938956229091463 1.4306697719234982014 1.4470530098416698461 1.4470008723922791471 1.4306468639893630268 1.275596164303351765 0.62661442618920237813 0.62507255614434376056 1.2758928786823870993 1.4348883943447390266 1.4526696330454129669 1.4526220384135462016 1.4348788198585142872 1.2758884416356912617 0.62508914388529279726 0.61968052100127224424 1.2727853548868057754 1.4341041168153891849 1.4528947249679897702 1.4528836666363431629 1.4341054315095334015 1.2727657987903111536 0.61968742365852191867 0.62799155989188248927 1.2786020576465821907 1.4369135275691065079 1.4556130961502604659 1.4555851264154435754 1.436899173478062508 1.2785806186539767637 0.6280037003288274633 0.58772423681950836105 1.147242852619422937 1.2675044993627042622 1.276337058285003323 1.2763319435501989663 1.2674835983922001503 1.1472247651866229745 0.58772977067378706639 0.58469830847740444923 1.149246214457029458 1.2728149404682476131 1.282698771394743309 1.2827003466519049102 1.2727932351825210766 1.1492345729004858068 0.58470651313048627173 0.57365948058748350569 1.1450386201028122102 1.275053316981938023 1.2871899451333481679 1.2871978007155295831 1.2750296262956921645 1.1450411291923827672 0.57366996658601521197 0.56517265694798768383 1.1396265235208560274 1.2755658961401705742 1.2898037756786977504 1.2898097728284858565 1.2755606397671872543 1.139620451119225164 0.56518429588890484183 0.55984988301129956501 1.135069174567203687 1.2755977548587873471 1.2915299980190906304 1.2915595157380341806 1.2755930381747322411 1.1350677200538374922 0.55985741901972629897 0.55769684110794870424 1.1321257830478665962 1.275894966268541264 1.2932686194964262416 1.2932915565797209467 1.2758870238829900234 1.1321217365561069279 0.55770513866697724037 0.55434314005566476258 1.1275735287214889713 1.2727880435076786014 1.2912177499051729068 1.2911839982365131974 1.2727637008814165487 1.1275678168375238286 0.5543502596184007869 0.5639889589414085469 1.1358152074980913948 1.2786052807736283388 1.2973504493007743665 1.2973061214358654336 1.2785775116465925016 1.1358159572175008378 0.56399978033196662697 0.32307266904261650042 0.58772496720306222073 0.64448766238326282707 0.64996011706175138567 0.6500310295196010113 0.64452122547864076907 0.58772982821028874056 0.3230715159189217478 0.31685326463216934023 0.58469930831468630572 0.64396243849558354455 0.65034988582379438249 0.65044606331206589189 0.64400437741114713308 0.58470635744601862083 0.31685179804843099927 0.30455893792027249889 0.57366120650811347481 0.63661038275139114617 0.6444951144053022718 0.64461668438264374537 0.63666176087155346153 0.57366900835718148688 0.30455592393994279643 0.29751967689289804397 0.56517433729056842928 0.63059971039553974759 0.63944869809511051262 0.63961678559033896541 0.63065805473806046955 0.56518300203116655922 0.29751518828232836889 0.29391875533615752225 0.55985135462170565468 0.62657377987208962011 0.63605650329789242825 0.6361408014658554988 0.62661981324002402616 0.55985595547719546605 0.29391936862545875453 0.29287633527083423157 0.55769778730369290454 0.62506780258456762223 0.63464189957375283235 0.63465677010686227799 0.62509201570379668844 0.55770384465940880947 0.29288258177382081593 0.29050595145565005772 0.55434388222037389582 0.61967745617504610411 0.62904801895381357024 0.62905308276135285528 0.61968752478477540091 0.55434890541297143773 0.29051472347755402659 0.29718050258327899371 0.56398970532376990761 0.6279916207650207971 0.63700034188767007404 0.63701765763164097667 0.628000253248768181 0.56399850283844532584 0.2971893338857233835 
        </DataArray>
      </CellData>
      <Points>
        <DataArray Name="m" NumberOfComponents="3" type="Float32" format="ascii">
0 0 0 0.125 0 0 0.25 0 0 0.375 0 0 0.5 0 0 0.625 0 0 0.75 0 0 0.875 0 0 1 0 0 0 0.125 0 0.125 0.125 0 0.25 0.125 0 0.375 0.125 0 0.5 0.125 0 0.625 0.125 0 0.75 0.125 0 0.875 0.125 0 1 0.125 0 0 0.25 0 0.125 0.25 0 0.25 0.25 0 0.375 0.25 0 0.5 0.25 0 0.625 0.25 0 0.75 0.25 0 0.875 0.25 0 1 0.25 0 0 0.375 0 0.125 0.375 0 0.25 0.375 0 0.375 0.375 0 0.5 0.375 0 0.625 0.375 0 0.75 0.375 0 0.875 0.375 0 1 0.375 0 0 0.5 0 0.125 0.5 0 0.25 0.5 0 0.375 0.5 0 0.5 0.5 0 0.625 0.5 0 0.75 0.5 0 0.875 0.5 0 1 0.5 0 0 0.625 0 0.125 0.625 0 0.25 0.625 0 0.375 0.625 0 0.5 0.625 0 0.625 0.625 0 0.75 0.625 0 0.875 0.625 0 1 0.625 0 0 0.75 0 0.125 0.75 0 0.25 0.75 0 0.375 0.75 0 0.5 0.75 0 0.625 0.75 0 0.75 0.75 0 0.875 0.75 0 1 0.75 0 0 0.875 0 0.125 0.875 0 0.25 0.875 0 0.375 0.875 0 0.5 0.875 0 0.625 0.875 0 0.75 0.875 0 0.875 0.875 0 1 0.875 0 0 1 0 0.125 1 0 0.25 1 0 0.375 1 0 0.5 1 0 0.625 1 0 0.75 1 0 0.875 1 0 1 1 0 0 0 0.125 0.125 0 0.125 0.25 0 0.125 0.375 0 0.125 0.5 0 0.125 0.625 0 0.125 0.75 0 0.125 0.875 0 0.125 1 0 0.125 0 0.125 0.125 0.125 0.125 0.125 0.25 0.125 0.125 0.375 0.125 0.125 0.5 0.125 0.125 0.625 0.125 0.125 0.75 0.125 0.125 0.875 0.125 0.125 1 0.125 0.125 0 0.25 0.125 0.125 0.25 0.125 0.25 0.25 0.125 0.375 0.25 0.125 0.5 0.25 0.125 0.625 0.25 0.125 0.75 0.25 0.125 0.875 0.25 0.125 1 0.25 0.125 0 0.375 0.125 0.125 0.375 0.125 0.25 0.375 0.125 0.375 0.375 0.125 0.5 0.375 0.125 0.625 0.375 0.125 0.75 0.375 0.125 0.875 0.375 0.125 1 0.375 0.125 0 0.5 0.125 0.125 0.5 0.125 0.25 0.5 0.125 0.375 0.5 0.125 0.5 0.5 0.125 0.625 0.5 0.125 0.75 0.5 0.125 0.875 0.5 0.125 1 0.5 0.125 0 0.625 0.125 0.125 0.625 0.125 0.25 0.625 0.125 0.375 0.625 0.125 0.5 0.625 0.125 0.625 0.625 0.125 0.75 0.625 0.125 0.875 0.625 0.125 1 0.625 0.125 0 0.75 0.125 0.125 0.75 0.125 0.25 0.75 0.125 0.375 0.75 0.125 0.5 0.75 0.125 0.625 0.75 0.125 0.75 0.75 0.125 0.875 0.75 0.125 1 0.75 0.125 0 0.875 0.125 0.125 0.875 0.125 0.25 0.875 0.125 0.375 0.875 0.125 0.5 0.875 0.125 0.625 0.875 0.125 0.75 0.875 0.125 0.875 0.875 0.125 1 0.875 0.125 0 1 0.125 0.125 1 0.125 0.25 1 0.125 0.375 1 0.125 0.5 1 0.125 0.625 1 0.125 0.75 1 0.125 0.875 1 0.125 1 1 0.125 0 0 0.25 0.125 0 0.25 0.25 0 0.25 0.375 0 0.25 0.5 0 0.25 0.625 0 0.25 0.75 0 0.25 0.875 0 0.25 1 0 0.25 0 0.125 0.25 0.125 0.125 0.25 0.25 0.125 0.25 0.375 0.125 0.25 0.5 0.125 0.25 0.625 0.125 0.25 0.75 0.125 0.25 0.875 0.125 0.25 1 0.125 0.25 0 0.25 0.25 0.125 0.25 0.25 0.25 0.25 0.25 0.375 0.25 0.25 0.5 0.25 0.25 0.625 0.25 0.25 0.75 0.25 0.25 0.875 0.25 0.25 1 0.25 0.25 0 0.375 0.25 0.125 0.375 0.25 0.25 0.375 0.25 0.375 0.375 0.25 0.5 0.375 0.25 0.625 0.375 0.25 0.75 0.375 0.25 0.875 0.375 0.25 1 0.375 0.25 0 0.5 0.25 0.125 0.5 0.25 0.25 0.5 0.25 0.375 0.5 0.25 0.5 0.5 0.25 0.625 0.5 0.25 0.75 0.5 0.25 0.875 0.5 0.25 1 0.5 0.25 0 0.625 0.25 0.125 0.625 0.25 0.25 0.625 0.25 0.375 0.625 0.25 0.5 0.625 0.25 0.625 0.625 0.25 0.75 0.625 0.25 0.875 0.625 0.25 1 0.625 0.25 0 0.75 0.25 0.125 0.75 0.25 0.25 0.75 0.25 0.375 0.75 0.25 0.5 0.75 0.25 0.625 0.75 0.25 0.75 0.75 0.25 0.875 0.75 0.25 1 0.75 0.25 0 0.875 0.25 0.125 0.875 0.25 0.25 0.875 0.25 0.375 0.875 0.25 0.5 0.875 0.25 0.625 0.875 0.25 0.75 0.875 0.25 0.875 0.875 0.25 1 0.875 0.25 0 1 0.25 0.125 1 0.25 0.25 1 0.25 0.375 1 0.25 0.5 1 0.25 0.625 1 0.25 0.75 1 0.25 0.875 1 0.25 1 1 0.25 0 0 0.375 0.125 0 0.375 0.25 0 0.375 0.375 0 0.375 0.5 0 0.375 0.625 0 0.375 0.75 0 0.375 0.875 0 0.375 1 0 0.375 0 0.125 0.375 0.125 0.125 0.375 0.25 0.125 0.375 0.375 0.125 0.375 0.5 0.125 0.375 0.625 0.125 0.375 0.75 0.125 0.375 0.875 0.125 0.375 1 0.125 0.375 0 0.25 0.375 0.125 0.25 0.375 0.25 0.25 0.375 0.375 0.25 0.375 0.5 0.25 0.375 0.625 0.25 0.375 0.75 0.25 0.375 0.875 0.25 0.375 1 0.25 0.375 0 0.375 0.375 0.125 0.375 0.375 0.25 0.375 0.375 0.375 0.375 0.375 0.5 0.375 0.375 0.625 0.375 0.375 0.75 0.375 0.375 0.875 0.375 0.375 1 0.375 0.375 0 0.5 0.375 0.125 0.5 0.375 0.25 0.5 0.375 0.375 0.5 0.375 0.5 0.5 0.375 0.625 0.5 0.375 0.75 0.5 0.375 0.875 0.5 0.375 1 0.5 0.375 0 0.625 0.375 0.125 0.625 0.375 0.25 0.625 0.375 0.375 0.625 0.375 0.5 0.625 0.375 0.625 0.625 0.375 0.75 0.625 0.375 0.875 0.625 0.375 1 0.625 0.375 0 0.75 0.375 0.125 0.75 0.375 0.25 0.75 0.375 0.375 0.75 0.375 0.5 0.75 0.375 0.625 0.75 0.375 0.75 0.75 0.375 0.875 0.75 0.375 1 0.75 0.375 0 0.875 0.375 0.125 0.875 0.375 0.25 0.875 0.375 0.375 0.875 0.375 0.5 0.875 0.375 0.625 0.875 0.375 0.75 0.875 0.375 0.875 0.875 0.375 1 0.875 0.375 0 1 0.375 0.125 1 0.375 0.25 1 0.375 0.375 1 0.375 0.5 1 0.375 0.625 1 0.375 0.75 1 0.375 0.875 1 0.375 1 1 0.375 0 0 0.5 0.125 0 0.5 0.25 0 0.5 0.375 0 0.5 0.5 0 0.5 0.625 0 0.5 0.75 0 0.5 0.875 0 0.5 1 0 0.5 0 0.125 0.5 0.125 0.125 0.5 0.25 0.125 0.5 0.375 0.125 0.5 0.5 0.125 0.5 0.625 0.125 0.5 0.75 0.125 0.5 0.875 0.125 0.5 1 0.125 0.5 0 0.25 0.5 0.125 0.25 0.5 0.25 0.25 0.5 0.375 0.25 0.5 0.5 0.25 0.5 0.625 0.25 0.5 0.75 0.25 0.5 0.875 0.25 0.5 1 0.25 0.5 0 0.375 0.5 0.125 0.375 0.5 0.25 0.375 0.5 0.375 0.375 0.5 0.5 0.375 0.5 0.625 0.375 0.5 0.75 0.375 0.5 0.875 0.375 0.5 1 0.375 0.5 0 0.5 0.5 0.125 0.5 0.5 0.25 0.5 0.5 0.375 0.5 0.5 0.5 0.5 0.5 0.625 0.5 0.5 0.75 0.5 0.5 0.875 0.5 0.5 1 0.5 0.5 0 0.625 0.5 0.125 0.625 0.5 0.25 0.625 0.5 0.375 0.625 0.5 0.5 0.625 0.5 0.625 0.625 0.5 0.75 0.625 0.5 0.875 0.625 0.5 1 0.625 0.5 0 0.75 0.5 0.125 0.75 0.5 0.25 0.75 0.5 0.375 0.75 0.5 0.5 0.75 0.5 0.625 0.75 0.5 0.75 0.75 0.5 0.875 0.75 0.5 1 0.75 0.5 0 0.875 0.5 0.125 0.875 0.5 0.25 0.875 0.5 0.375 0.875 0.5 0.5 0.875 0.5 0.625 0.875 0.5 0.75 0.875 0.5 0.875 0.875 0.5 1 0.875 0.5 0 1 0.5 0.125 1 0.5 0.25 1 0.5 0.375 1 0.5 0.5 1 0.5 0.625 1 0.5 0.75 1 0.5 0.875 1 0.5 1 1 0.5 0 0 0.625 0.125 0 0.625 0.25 0 0.625 0.375 0 0.625 0.5 0 0.625 0.625 0 0.625 0.75 0 0.625 0.875 0 0.625 1 0 0.625 0 0.125 0.625 0.125 0.125 0.625 0.25 0.125 0.625 0.375 0.125 0.625 0.5 0.125 0.625 0.625 0.125 0.625 0.75 0.125 0.625 0.875 0.125 0.625 1 0.125 0.625 0 0.25 0.625 0.125 0.25 0.625 0.25 0.25 0.625 0.375 0.25 0.625 0.5 0.25 0.625 0.625 0.25 0.625 0.75 0.25 0.625 0.875 0.25 0.625 1 0.25 0.625 0 0.375 0.625 0.125 0.375 0.625 0.25 0.375 0.625 0.375 0.375 0.625 0.5 0.375 0.625 0.625 0.375 0.625 0.75 0.375 0.625 0.875 0.375 0.625 1 0.375 0.625 0 0.5 0.625 0.125 0.5 0.625 0.25 0.5 0.625 0.375 0.5 0.625 0.5 0.5 0.625 0.625 0.5 0.625 0.75 0.5 0.625 0.875 0.5 0.625 1 0.5 0.625 0 0.625 0.625 0.125 0.625 0.625 0.25 0.625 0.625 0.375 0.625 0.625 0.5 0.625 0.625 0.625 0.625 0.625 0.75 0.625 0.625 0.875 0.625 0.625 1 0.625 0.625 0 0.75 0.625 0.125 0.75 0.625 0.25 0.75 0.625 0.375 0.75 0.625 0.5 0.75 0.625 0.625 0.75 0.625 0.75 0.75 0.625 0.875 0.75 0.625 1 0.75 0.625 0 0.875 0.625 0.125 0.875 0.625 0.25 0.875 0.625 0.375 0.875 0.625 0.5 0.875 0.625 0.625 0.875 0.625 0.75 0.875 0.625 0.875 0.875 0.625 1 0.875 0.625 0 1 0.625 0.125 1 0.625 0.25 1 0.625 0.375 1 0.625 0.5 1 0.625 0.625 1 0.625 0.75 1 0.625 0.875 1 0.625 1 1 0.625 0 0 0.75 0.125 0 0.75 0.25 0 0.75 0.375 0 0.75 0.5 0 0.75 0.625 0 0.75 0.75 0 0.75 0.875 0 0.75 1 0 0.75 0 0.125 0.75 0.125 0.125 0.75 0.25 0.125 0.75 0.375 0.125 0.75 0.5 0.125 0.75 0.625 0.125 0.75 0.75 0.125 0.75 0.875 0.125 0.75 1 0.125 0.75 0 0.25 0.75 0.125 0.25 0.75 0.25 0.25 0.75 0.375 0.25 0.75 0.5 0.25 0.75 0.625 0.25 0.75 0.75 0.25 0.75 0.875 0.25 0.75 1 0.25 0.75 0 0.375 0.75 0.125 0.375 0.75 0.25 0.375 0.75 0.375 0.375 0.75 0.5 0.375 0.75 0.625 0.375 0.75 0.75 0.375 0.75 0.875 0.375 0.75 1 0.375 0.75 0 0.5 0.75 0.125 0.5 0.75 0.25 0.5 0.75 0.375 0.5 0.75 0.5 0.5 0.75 0.625 0.5 0.75 0.75 0.5 0.75 0.875 0.5 0.75 1 0.5 0.75 0 0.625 0.75 0.125 0.625 0.75 0.25 0.625 0.75 0.375 0.625 0.75 0.5 0.625 0.75 0.625 0.625 0.75 0.75 0.625 0.75 0.875 0.625 0.75 1 0.625 0.75 0 0.75 0.75 0.125 0.75 0.75 0.25 0.75 0.75 0.375 0.75 0.75 0.5 0.75 0.75 0.625 0.75 0.75 0.75 0.75 0.75 0.875 0.75 0.75 1 0.75 0.75 0 0.875 0.75 0.125 0.875 0.75 0.25 0.875 0.75 0.375 0.875 0.75 0.5 0.875 0.75 0.625 0.875 0.75 0.75 0.875 0.75 0.875 0.875 0.75 1 0.875 0.75 0 1 0.75 0.125 1 0.75 0.25 1 0.75 0.375 1 0.75 0.5 1 0.75 0.625 1 0.75 0.75 1 0.75 0.875 1 0.75 1 1 0.75 0 0 0.875 0.125 0 0.875 0.25 0 0.875 0.375 0 0.875 0.5 0 0.875 0.625 0 0.875 0.75 0 0.875 0.875 0 0.875 1 0 0.875 0 0.125 0.875 0.125 0.125 0.875 0.25 0.125 0.875 0.375 0.125 0.875 0.5 0.125 0.875 0.625 0.125 0.875 0.75 0.125 0.875 0.875 0.125 0.875 1 0.125 0.875 0 0.25 0.875 0.125 0.25 0.875 0.25 0.25 0.875 0.375 0.25 0.875 0.5 0.25 0.875 0.625 0.25 0.875 0.75 0.25 0.875 0.875 0.25 0.875 1 0.25 0.875 0 0.375 0.875 0.125 0.375 0.875 0.25 0.375 0.875 0.375 0.375 0.875 0.5 0.375 0.875 0.625 0.375 0.875 0.75 0.375 0.875 0.875 0.375 0.875 1 0.375 0.875 0 0.5 0.875 0.125 0.5 0.875 0.25 0.5 0.875 0.375 0.5 0.875 0.5 0.5 0.875 0.625 0.5 0.875 0.75 0.5 0.875 0.875 0.5 0.875 1 0.5 0.875 0 0.625 0.875 0.125 0.625 0.875 0.25 0.625 0.875 0.375 0.625 0.875 0.5 0.625 0.875 0.625 0.625 0.875 0.75 0.625 0.875 0.875 0.625 0.875 1 0.625 0.875 0 0.75 0.875 0.125 0.75 0.875 0.25 0.75 0.875 0.375 0.75 0.875 0.5 0.75 0.875 0.625 0.75 0.875 0.75 0.75 0.875 0.875 0.75 0.875 1 0.75 0.875 0 0.875 0.875 0.125 0.875 0.875 0.25 0.875 0.875 0.375 0.875 0.875 0.5 0.875 0.875 0.625 0.875 0.875 0.75 0.875 0.875 0.875 0.875 0.875 1 0.875 0.875 0 1 0.875 0.125 1 0.875 0.25 1 0.875 0.375 1 0.875 0.5 1 0.875 0.625 1 0.875 0.75 1 0.875 0.875 1 0.875 1 1 0.875 0 0 1 0.125 0 1 0.25 0 1 0.375 0 1 0.5 0 1 0.625 0 1 0.75 0 1 0.875 0 1 1 0 1 0 0.125 1 0.125 0.125 1 0.25 0.125 1 0.375 0.125 1 0.5 0.125 1 0.625 0.125 1 0.75 0.125 1 0.875 0.125 1 1 0.125 1 0 0.25 1 0.125 0.25 1 0.25 0.25 1 0.375 0.25 1 0.5 0.25 1 0.625 0.25 1 0.75 0.25 1 0.875 0.25 1 1 0.25 1 0 0.375 1 0.125 0.375 1 0.25 0.375 1 0.375 0.375 1 0.5 0.375 1 0.625 0.375 1 0.75 0.375 1 0.875 0.375 1 1 0.375 1 0 0.5 1 0.125 0.5 1 0.25 0.5 1 0.375 0.5 1 0.5 0.5 1 0.625 0.5 1 0.75 0.5 1 0.875 0.5 1 1 0.5 1 0 0.625 1 0.125 0.625 1 0.25 0.625 1 0.375 0.625 1 0.5 0.625 1 0.625 0.625 1 0.75 0.625 1 0.875 0.625 1 1 0.625 1 0 0.75 1 0.125 0.75 1 0.25 0.75 1 0.375 0.75 1 0.5 0.75 1 0.625 0.75 1 0.75 0.75 1 0.875 0.75 1 1 0.75 1 0 0.875 1 0.125 0.875 1 0.25 0.875 1 0.375 0.875 1 0.5 0.875 1 0.625 0.875 1 0.75 0.875 1 0.875 0.875 1 1 0.875 1 0 1 1 0.125 1 1 0.25 1 1 0.375 1 1 0.5 1 1 0.625 1 1 0.75 1 1 0.875 1 1 1 1 1         </DataArray>
      </Points>
    </Piece>
  </StructuredGrid>
</VTKFile>
