<?xml version="1.0"?>
<VTKFile type="StructuredGrid" version="0.1" byte_order="LittleEndian">
  <StructuredGrid WholeExtent="0 8 0 8 0 8">
    <Piece Extent="0 8 0 8 0 8">
      <PointData>
      </PointData>
      <CellData>
        <DataArray Name="vy" NumberOfComponents="1" type="Float32" format="ascii">
0.32305660258691976106 0.58771680462184394678 0.64451418176833152884 0.64999496782373322734 0.65002223858754137886 0.64451242086695503808 0.58771204552269618038 0.32305350636634660999 0.31684919639951675263 0.58469788571625302964 0.64399036254125718859 0.65039894390494856768 0.65042449013020919857 0.64399131611085236315 0.58469043030278222695 0.31684842992319117716 0.30455381127272113106 0.57365995614939524483 0.63664488090579129942 0.64457902180248294322 0.64454795274352572054 0.63663974243833365563 0.57365810542557571505 0.30455273748846145576 0.2975141056217554536 0.56517637985653823574 0.6306260296291010814 0.639539497034998905 0.6395363958938700133 0.63062941032769082028 0.56517658398291481525 0.29751342483244497261 0.29391988533294766128 0.5598474890802310755 0.62658811793551205671 0.63606503080413678841 0.63612374533094051543 0.62660273844524227993 0.55984987372843864062 0.2939187928067344413 0.29287755749319999143 0.55769130263725552599 0.62506842327526257463 0.63461114062185575158 0.63466938825085061904 0.62508387903467232949 0.55769565799309084309 0.29287498957396301824 0.29051015242581734732 0.55433558912732872059 0.61967032607426419943 0.62902823867649637624 0.62904339925013819101 0.61968080020750004877 0.55433753854403211569 0.29050417959792884659 0.29719771208551698516 0.56399056101330258262 0.62798928364405659508 0.63699643303547159867 0.63698461634751646354 0.62798803392919011479 0.56398346816235844781 0.29719294189674905216 0.58771438618182358926 1.1472321188525917979 1.2674944467809903248 1.2763312511893636358 1.2763338860100972294 1.2675025327027411581 1.1472360561273422519 0.58771215970573353893 0.58469786808763490882 1.1492362010193584165 1.2728022351933634404 1.282687751374262497 1.2827016496292613645 1.2728148772941072497 1.1492417980301996572 0.58468660115077020212 0.57366425367422024806 1.145041636659509976 1.2750291714925998665 1.2871793443063317408 1.2872180404772590734 1.2750442685591969472 1.1450448003779489792 0.57365100120317902288 0.56518204714776409947 1.1396293366339365072 1.2755562363759127553 1.2897841643378342713 1.2898310917013737775 1.2755651772896703378 1.1396299190046041971 0.56516869174589479119 0.55985397729614549966 1.1350626570298196771 1.2755992465575276551 1.291555728777256995 1.2915385145103748243 1.2755977511986855699 1.1350626737716105197 0.5598415849722169213 0.55769752547425988087 1.1321258147082731149 1.2758837636620008471 1.2932988424866047605 1.2932706093735708563 1.2758925790892277075 1.1321323348550642596 0.5576885750592978086 0.55433944658319000975 1.1275769622542854975 1.2727638855457379385 1.291186865401194872 1.2912237331604679014 1.2727977354292578926 1.1275846718829500848 0.55433266598017028048 0.56399358202372940063 1.1358167913488843581 1.2785690084223286789 1.29728436002041847 1.2973639104670744437 1.2786080672041044703 1.135826319194047862 0.56398086587635265499 0.6445269771747954568 1.2674867521496695488 1.4007851864568963141 1.4098389143372034304 1.4098533130186154949 1.4007986590897154588 1.2675084085273051748 0.64449430693769160783 0.6440046462639539282 1.2727978018181855813 1.409150930152532899 1.4191980227978633344 1.419206805632661883 1.4091570014644951847 1.2728150929843411454 0.64397411499916468181 0.63666123817321762512 1.2750281292631375774 1.4181606948061011853 1.4306213092459683089 1.4306201057118534958 1.4181697923743203926 1.2750379321380429509 0.63661981451636928675 0.63064638587796550961 1.2755575199444131318 1.425272376267277652 1.4399382204178592382 1.4399242035222987734 1.4252865410206174701 1.2755591711974412217 0.63060652858557009193 0.62661072784173310612 1.2756027731863779362 1.4306721976863423507 1.4470115486942962679 1.4470481052508390452 1.4306900941216948997 1.2755872675070585309 0.62657880396905363263 0.62508435549638485806 1.2758906641033314067 1.4349088754812386881 1.4526385499339269369 1.4526724257558223385 1.4349065823980273748 1.2758837338809627671 0.62506588248870242897 0.61968191815854645199 1.2727680626361101979 1.4341307835855334751 1.4529088460419059547 1.4529117492763803376 1.4341202396473948788 1.2727870442958868491 0.61967023591230929735 0.62799145871592554347 1.2785768679093165723 1.4369162406702895574 1.4556060006781401661 1.4556118329668001898 1.4369368695997011276 1.278600913841826614 0.62798433345772941561 0.65004372938438947926 1.2763267856750335483 1.4098436465718762189 1.4191286119622104067 1.4191174969360589309 1.4098471409128261467 1.2763369966550011103 0.64997465640081053539 0.65045701656216747821 1.2826929854935149589 1.419194796352227339 1.4294829425845252402 1.4294650240776418659 1.4192126517665273333 1.2826911290473863581 0.65036837517779533258 0.64462740794937278821 1.28720594253172127 1.4306062782216339979 1.4434144787662421816 1.4433948553392028646 1.4306283207210364061 1.2871960577624717015 0.64449973511346969612 0.63959116483654665508 1.2898178370689481476 1.4399184183596815956 1.4549062703034860711 1.4549007589836540077 1.4399462902102406758 1.2897859619790530417 0.63950570585483401675 0.63611376515293593936 1.2915770246979902947 1.4470044013457303844 1.4635849231154405281 1.4635681567378371337 1.4470476835356298473 1.291522791171929363 0.63607611799042262923 0.63464688364431243173 1.2933024630554801337 1.452640707022321731 1.4704364514716157242 1.4704140608942610768 1.4526677321519723129 1.2932630969686909062 0.63464064637267003643 0.62904226549791453227 1.2911924799201666136 1.4529125354840353168 1.4715394600333040476 1.4715172032103340793 1.4529025913778756962 1.2912269572208654456 0.62902982459691469952 0.63699114866730199847 1.2972854927805759218 1.4556063280557385298 1.4737712766009398724 1.4737622655147903927 1.4556103266639985883 1.297363698368328544 0.63699107865508430848 0.64996815207594826891 1.2763399803039299218 1.4098599552548833902 1.4191207642283925061 1.4191126554573394447 1.4098305340844441425 1.2763286220366196755 0.65005605176279512847 0.65035720362037330311 1.2826962177933198817 1.4192216032094442379 1.4294694009444131044 1.4294704973253762326 1.4191764812343878877 1.2827015342666134856 0.65047297297224426771 0.64449138297377739359 1.2871901475237206292 1.4306420598304434577 1.4434007903373018422 1.4433974452966444879 1.4305983112618514408 1.2872163919601122828 0.64464399257643256735 0.63948063909655028514 1.2897939844613333094 1.4399516140596773095 1.4549031363335518385 1.4548867953637691919 1.4399039199054426419 1.2898432687074734559 0.63958733395309141923 0.63607284951903075854 1.2915189499944370599 1.4470614641266936751 1.4635746108936720233 1.4635676557120167463 1.4470036171094353694 1.2915909270348262528 0.63611869744250659764 0.63463456341271007322 1.2932658092854290022 1.4526788150255456333 1.47041528093757079 1.470426038160196569 1.4526433939283867058 1.2933067209313051649 0.6346444337883460074 0.62903302732796073649 1.2912198775088894465 1.4529079219984231131 1.4715211627995878896 1.4715394466537989882 1.4529153429295733613 1.2911906117364577717 0.62903677321406770151 0.63699319189439895794 1.2973670298605632922 1.4556102859796515858 1.4737604447823566822 1.4737736478294336528 1.4556123397697944277 1.297278405998247397 0.63698891534281809612 0.64449540042954578389 1.2675113120738892292 1.4008165218454231571 1.4098527017439388409 1.4098362183087467248 1.4007590101901921109 1.2674926687228085243 0.64453460122847650027 0.6439701479271351392 1.2728208957126456724 1.4091718963462909198 1.4192180410029997528 1.4191825228809515913 1.409138361199236078 1.272793745601458415 0.64401754507539565875 0.6366151033507205792 1.2750444057563423694 1.4181853797634478287 1.4306318142535077165 1.4306016199687288104 1.4181359602343452941 1.2750399366896143505 0.63667210447491351388 0.63060527876173178008 1.2755575284528544167 1.425299522695443466 1.4399426921089062414 1.4399150405250864537 1.4252590211780238327 1.2755657769311299354 0.6306550526706995452 0.62657837559194340393 1.2755959115577450991 1.4306973148745441016 1.447044813847288447 1.4470126262714797516 1.4306658883548903916 1.2756069883398344356 0.62661324322599842862 0.62506732457113722834 1.2758894892573533486 1.4349112438373188283 1.4526833177460731772 1.4526363172732001949 1.4349011406914522482 1.2758940308608164305 0.62508475309203059833 0.61967118507880880607 1.2727900000434928529 1.4341284616963387855 1.4529151654572651786 1.4529026070639614598 1.434134496618899135 1.2727678807882860657 0.61967895857242893953 0.62798570679900000968 1.2786057940509025777 1.4369312604713762038 1.4556205420213024215 1.4556009152627307213 1.4369187978821291729 1.2785754217254909904 0.62799249198744844236 0.58771202211563144946 1.1472401455937231152 1.2675023275824417457 1.2763353850980858617 1.2763318024216894209 1.2674998097305700817 1.1472272888671548596 0.58771474042732907428 0.58468849796694977172 1.1492416169857591068 1.2728072103866934217 1.2826858088953199122 1.2827065986619867743 1.2728031819533907054 1.1492377925160059959 0.5847016963214671792 0.57365249285842334626 1.145040379100561001 1.2750300054853078713 1.2871880118177212449 1.2872231171027170848 1.2750469329831821685 1.1450408374373590714 0.57366715595504225167 0.56517005453253577052 1.1396261745530185117 1.2755480259607911986 1.2897857876869656124 1.2898399565214622164 1.275570547131208432 1.1396346282724967303 0.56518130145753142646 0.55984455289657542032 1.1350573229365912287 1.2755821573270067493 1.2915229565175283533 1.2915924344478175723 1.2756137801399307641 1.1350698600184812026 0.55985198469910113506 0.55768917106945614659 1.1321292657761519163 1.275878724544862397 1.2932503718283623328 1.2933182122479394138 1.2759028477146383551 1.1321262248966390551 0.55769770844321442382 0.55433654533039633527 1.1275786855940315156 1.272775297624012536 1.2912022482223450837 1.2912170059894636509 1.2727760632961420129 1.1275830026727606814 0.55433907015897587733 0.56398225828281489669 1.1358218053638207135 1.2785949635469404662 1.2973356417291628251 1.2973106940529761655 1.2785869495312884858 1.1358198970686512741 0.56399227470233193049 0.32305304024606501523 0.58770090878296987746 0.64448192705621976106 0.64996219889042172735 0.65006314009521992681 0.64454273512702886517 0.58772354652933112007 0.32305708166123420222 0.31684672443492029048 0.58467934220309747406 0.64395699299246611513 0.65035389995656300854 0.65047819103451909317 0.64402776707715680971 0.58470699919939561617 0.31684676806566952623 0.3045527986100438067 0.57364497887099374918 0.63660263307002507016 0.6444906371654440802 0.64464484634355290193 0.63668099236522612827 0.57367185701428435873 0.30455296609583093481 0.29751316679814998611 0.5651624693299783786 0.630589507170168595 0.63946600629433603125 0.63962291643895230475 0.63066828396128726819 0.5651866526402975488 0.29751258291217486107 0.29391817162910294225 0.55984015256465502475 0.62656522770037137438 0.63606596116849878353 0.63612664046218170277 0.62662504385312645105 0.55985457106200064992 0.29392106975861570506 0.29287309780326431508 0.55768479164032647155 0.62505768993595123284 0.63463683538963688857 0.63464908817973997301 0.62509228560836949118 0.55770121211468026701 0.29288017228861967789 0.29050123262236132726 0.55433132920446592795 0.61966856066022912852 0.62904781081711313995 0.62902231624851867586 0.6196825574912013801 0.5543432612306322671 0.29051375631781101161 0.29719001783129112004 0.56397908739113011833 0.62798088543103758319 0.63698764331568547004 0.63699547321691230017 0.62799571726326153254 0.56399586117830280418 0.2972025680225778288 
        </DataArray>
      </CellData>
      <Points>
        <DataArray Name="m" NumberOfComponents="3" type="Float32" format="ascii">
0 0 0 0.125 0 0 0.25 0 0 0.375 0 0 0.5 0 0 0.625 0 0 0.75 0 0 0.875 0 0 1 0 0 0 0.125 0 0.125 0.125 0 0.25 0.125 0 0.375 0.125 0 0.5 0.125 0 0.625 0.125 0 0.75 0.125 0 0.875 0.125 0 1 0.125 0 0 0.25 0 0.125 0.25 0 0.25 0.25 0 0.375 0.25 0 0.5 0.25 0 0.625 0.25 0 0.75 0.25 0 0.875 0.25 0 1 0.25 0 0 0.375 0 0.125 0.375 0 0.25 0.375 0 0.375 0.375 0 0.5 0.375 0 0.625 0.375 0 0.75 0.375 0 0.875 0.375 0 1 0.375 0 0 0.5 0 0.125 0.5 0 0.25 0.5 0 0.375 0.5 0 0.5 0.5 0 0.625 0.5 0 0.75 0.5 0 0.875 0.5 0 1 0.5 0 0 0.625 0 0.125 0.625 0 0.25 0.625 0 0.375 0.625 0 0.5 0.625 0 0.625 0.625 0 0.75 0.625 0 0.875 0.625 0 1 0.625 0 0 0.75 0 0.125 0.75 0 0.25 0.75 0 0.375 0.75 0 0.5 0.75 0 0.625 0.75 0 0.75 0.75 0 0.875 0.75 0 1 0.75 0 0 0.875 0 0.125 0.875 0 0.25 0.875 0 0.375 0.875 0 0.5 0.875 0 0.625 0.875 0 0.75 0.875 0 0.875 0.875 0 1 0.875 0 0 1 0 0.125 1 0 0.25 1 0 0.375 1 0 0.5 1 0 0.625 1 0 0.75 1 0 0.875 1 0 1 1 0 0 0 0.125 0.125 0 0.125 0.25 0 0.125 0.375 0 0.125 0.5 0 0.125 0.625 0 0.125 0.75 0 0.125 0.875 0 0.125 1 0 0.125 0 0.125 0.125 0.125 0.125 0.125 0.25 0.125 0.125 0.375 0.125 0.125 0.5 0.125 0.125 0.625 0.125 0.125 0.75 0.125 0.125 0.875 0.125 0.125 1 0.125 0.125 0 0.25 0.125 0.125 0.25 0.125 0.25 0.25 0.125 0.375 0.25 0.125 0.5 0.25 0.125 0.625 0.25 0.125 0.75 0.25 0.125 0.875 0.25 0.125 1 0.25 0.125 0 0.375 0.125 0.125 0.375 0.125 0.25 0.375 0.125 0.375 0.375 0.125 0.5 0.375 0.125 0.625 0.375 0.125 0.75 0.375 0.125 0.875 0.375 0.125 1 0.375 0.125 0 0.5 0.125 0.125 0.5 0.125 0.25 0.5 0.125 0.375 0.5 0.125 0.5 0.5 0.125 0.625 0.5 0.125 0.75 0.5 0.125 0.875 0.5 0.125 1 0.5 0.125 0 0.625 0.125 0.125 0.625 0.125 0.25 0.625 0.125 0.375 0.625 0.125 0.5 0.625 0.125 0.625 0.625 0.125 0.75 0.625 0.125 0.875 0.625 0.125 1 0.625 0.125 0 0.75 0.125 0.125 0.75 0.125 0.25 0.75 0.125 0.375 0.75 0.125 0.5 0.75 0.125 0.625 0.75 0.125 0.75 0.75 0.125 0.875 0.75 0.125 1 0.75 0.125 0 0.875 0.125 0.125 0.875 0.125 0.25 0.875 0.125 0.375 0.875 0.125 0.5 0.875 0.125 0.625 0.875 0.125 0.75 0.875 0.125 0.875 0.875 0.125 1 0.875 0.125 0 1 0.125 0.125 1 0.125 0.25 1 0.125 0.375 1 0.125 0.5 1 0.125 0.625 1 0.125 0.75 1 0.125 0.875 1 0.125 1 1 0.125 0 0 0.25 0.125 0 0.25 0.25 0 0.25 0.375 0 0.25 0.5 0 0.25 0.625 0 0.25 0.75 0 0.25 0.875 0 0.25 1 0 0.25 0 0.125 0.25 0.125 0.125 0.25 0.25 0.125 0.25 0.375 0.125 0.25 0.5 0.125 0.25 0.625 0.125 0.25 0.75 0.125 0.25 0.875 0.125 0.25 1 0.125 0.25 0 0.25 0.25 0.125 0.25 0.25 0.25 0.25 0.25 0.375 0.25 0.25 0.5 0.25 0.25 0.625 0.25 0.25 0.75 0.25 0.25 0.875 0.25 0.25 1 0.25 0.25 0 0.375 0.25 0.125 0.375 0.25 0.25 0.375 0.25 0.375 0.375 0.25 0.5 0.375 0.25 0.625 0.375 0.25 0.75 0.375 0.25 0.875 0.375 0.25 1 0.375 0.25 0 0.5 0.25 0.125 0.5 0.25 0.25 0.5 0.25 0.375 0.5 0.25 0.5 0.5 0.25 0.625 0.5 0.25 0.75 0.5 0.25 0.875 0.5 0.25 1 0.5 0.25 0 0.625 0.25 0.125 0.625 0.25 0.25 0.625 0.25 0.375 0.625 0.25 0.5 0.625 0.25 0.625 0.625 0.25 0.75 0.625 0.25 0.875 0.625 0.25 1 0.625 0.25 0 0.75 0.25 0.125 0.75 0.25 0.25 0.75 0.25 0.375 0.75 0.25 0.5 0.75 0.25 0.625 0.75 0.25 0.75 0.75 0.25 0.875 0.75 0.25 1 0.75 0.25 0 0.875 0.25 0.125 0.875 0.25 0.25 0.875 0.25 0.375 0.875 0.25 0.5 0.875 0.25 0.625 0.875 0.25 0.75 0.875 0.25 0.875 0.875 0.25 1 0.875 0.25 0 1 0.25 0.125 1 0.25 0.25 1 0.25 0.375 1 0.25 0.5 1 0.25 0.625 1 0.25 0.75 1 0.25 0.875 1 0.25 1 1 0.25 0 0 0.375 0.125 0 0.375 0.25 0 0.375 0.375 0 0.375 0.5 0 0.375 0.625 0 0.375 0.75 0 0.375 0.875 0 0.375 1 0 0.375 0 0.125 0.375 0.125 0.125 0.375 0.25 0.125 0.375 0.375 0.125 0.375 0.5 0.125 0.375 0.625 0.125 0.375 0.75 0.125 0.375 0.875 0.125 0.375 1 0.125 0.375 0 0.25 0.375 0.125 0.25 0.375 0.25 0.25 0.375 0.375 0.25 0.375 0.5 0.25 0.375 0.625 0.25 0.375 0.75 0.25 0.375 0.875 0.25 0.375 1 0.25 0.375 0 0.375 0.375 0.125 0.375 0.375 0.25 0.375 0.375 0.375 0.375 0.375 0.5 0.375 0.375 0.625 0.375 0.375 0.75 0.375 0.375 0.875 0.375 0.375 1 0.375 0.375 0 0.5 0.375 0.125 0.5 0.375 0.25 0.5 0.375 0.375 0.5 0.375 0.5 0.5 0.375 0.625 0.5 0.375 0.75 0.5 0.375 0.875 0.5 0.375 1 0.5 0.375 0 0.625 0.375 0.125 0.625 0.375 0.25 0.625 0.375 0.375 0.625 0.375 0.5 0.625 0.375 0.625 0.625 0.375 0.75 0.625 0.375 0.875 0.625 0.375 1 0.625 0.375 0 0.75 0.375 0.125 0.75 0.375 0.25 0.75 0.375 0.375 0.75 0.375 0.5 0.75 0.375 0.625 0.75 0.375 0.75 0.75 0.375 0.875 0.75 0.375 1 0.75 0.375 0 0.875 0.375 0.125 0.875 0.375 0.25 0.875 0.375 0.375 0.875 0.375 0.5 0.875 0.375 0.625 0.875 0.375 0.75 0.875 0.375 0.875 0.875 0.375 1 0.875 0.375 0 1 0.375 0.125 1 0.375 0.25 1 0.375 0.375 1 0.375 0.5 1 0.375 0.625 1 0.375 0.75 1 0.375 0.875 1 0.375 1 1 0.375 0 0 0.5 0.125 0 0.5 0.25 0 0.5 0.375 0 0.5 0.5 0 0.5 0.625 0 0.5 0.75 0 0.5 0.875 0 0.5 1 0 0.5 0 0.125 0.5 0.125 0.125 0.5 0.25 0.125 0.5 0.375 0.125 0.5 0.5 0.125 0.5 0.625 0.125 0.5 0.75 0.125 0.5 0.875 0.125 0.5 1 0.125 0.5 0 0.25 0.5 0.125 0.25 0.5 0.25 0.25 0.5 0.375 0.25 0.5 0.5 0.25 0.5 0.625 0.25 0.5 0.75 0.25 0.5 0.875 0.25 0.5 1 0.25 0.5 0 0.375 0.5 0.125 0.375 0.5 0.25 0.375 0.5 0.375 0.375 0.5 0.5 0.375 0.5 0.625 0.375 0.5 0.75 0.375 0.5 0.875 0.375 0.5 1 0.375 0.5 0 0.5 0.5 0.125 0.5 0.5 0.25 0.5 0.5 0.375 0.5 0.5 0.5 0.5 0.5 0.625 0.5 0.5 0.75 0.5 0.5 0.875 0.5 0.5 1 0.5 0.5 0 0.625 0.5 0.125 0.625 0.5 0.25 0.625 0.5 0.375 0.625 0.5 0.5 0.625 0.5 0.625 0.625 0.5 0.75 0.625 0.5 0.875 0.625 0.5 1 0.625 0.5 0 0.75 0.5 0.125 0.75 0.5 0.25 0.75 0.5 0.375 0.75 0.5 0.5 0.75 0.5 0.625 0.75 0.5 0.75 0.75 0.5 0.875 0.75 0.5 1 0.75 0.5 0 0.875 0.5 0.125 0.875 0.5 0.25 0.875 0.5 0.375 0.875 0.5 0.5 0.875 0.5 0.625 0.875 0.5 0.75 0.875 0.5 0.875 0.875 0.5 1 0.875 0.5 0 1 0.5 0.125 1 0.5 0.25 1 0.5 0.375 1 0.5 0.5 1 0.5 0.625 1 0.5 0.75 1 0.5 0.875 1 0.5 1 1 0.5 0 0 0.625 0.125 0 0.625 0.25 0 0.625 0.375 0 0.625 0.5 0 0.625 0.625 0 0.625 0.75 0 0.625 0.875 0 0.625 1 0 0.625 0 0.125 0.625 0.125 0.125 0.625 0.25 0.125 0.625 0.375 0.125 0.625 0.5 0.125 0.625 0.625 0.125 0.625 0.75 0.125 0.625 0.875 0.125 0.625 1 0.125 0.625 0 0.25 0.625 0.125 0.25 0.625 0.25 0.25 0.625 0.375 0.25 0.625 0.5 0.25 0.625 0.625 0.25 0.625 0.75 0.25 0.625 0.875 0.25 0.625 1 0.25 0.625 0 0.375 0.625 0.125 0.375 0.625 0.25 0.375 0.625 0.375 0.375 0.625 0.5 0.375 0.625 0.625 0.375 0.625 0.75 0.375 0.625 0.875 0.375 0.625 1 0.375 0.625 0 0.5 0.625 0.125 0.5 0.625 0.25 0.5 0.625 0.375 0.5 0.625 0.5 0.5 0.625 0.625 0.5 0.625 0.75 0.5 0.625 0.875 0.5 0.625 1 0.5 0.625 0 0.625 0.625 0.125 0.625 0.625 0.25 0.625 0.625 0.375 0.625 0.625 0.5 0.625 0.625 0.625 0.625 0.625 0.75 0.625 0.625 0.875 0.625 0.625 1 0.625 0.625 0 0.75 0.625 0.125 0.75 0.625 0.25 0.75 0.625 0.375 0.75 0.625 0.5 0.75 0.625 0.625 0.75 0.625 0.75 0.75 0.625 0.875 0.75 0.625 1 0.75 0.625 0 0.875 0.625 0.125 0.875 0.625 0.25 0.875 0.625 0.375 0.875 0.625 0.5 0.875 0.625 0.625 0.875 0.625 0.75 0.875 0.625 0.875 0.875 0.625 1 0.875 0.625 0 1 0.625 0.125 1 0.625 0.25 1 0.625 0.375 1 0.625 0.5 1 0.625 0.625 1 0.625 0.75 1 0.625 0.875 1 0.625 1 1 0.625 0 0 0.75 0.125 0 0.75 0.25 0 0.75 0.375 0 0.75 0.5 0 0.75 0.625 0 0.75 0.75 0 0.75 0.875 0 0.75 1 0 0.75 0 0.125 0.75 0.125 0.125 0.75 0.25 0.125 0.75 0.375 0.125 0.75 0.5 0.125 0.75 0.625 0.125 0.75 0.75 0.125 0.75 0.875 0.125 0.75 1 0.125 0.75 0 0.25 0.75 0.125 0.25 0.75 0.25 0.25 0.75 0.375 0.25 0.75 0.5 0.25 0.75 0.625 0.25 0.75 0.75 0.25 0.75 0.875 0.25 0.75 1 0.25 0.75 0 0.375 0.75 0.125 0.375 0.75 0.25 0.375 0.75 0.375 0.375 0.75 0.5 0.375 0.75 0.625 0.375 0.75 0.75 0.375 0.75 0.875 0.375 0.75 1 0.375 0.75 0 0.5 0.75 0.125 0.5 0.75 0.25 0.5 0.75 0.375 0.5 0.75 0.5 0.5 0.75 0.625 0.5 0.75 0.75 0.5 0.75 0.875 0.5 0.75 1 0.5 0.75 0 0.625 0.75 0.125 0.625 0.75 0.25 0.625 0.75 0.375 0.625 0.75 0.5 0.625 0.75 0.625 0.625 0.75 0.75 0.625 0.75 0.875 0.625 0.75 1 0.625 0.75 0 0.75 0.75 0.125 0.75 0.75 0.25 0.75 0.75 0.375 0.75 0.75 0.5 0.75 0.75 0.625 0.75 0.75 0.75 0.75 0.75 0.875 0.75 0.75 1 0.75 0.75 0 0.875 0.75 0.125 0.875 0.75 0.25 0.875 0.75 0.375 0.875 0.75 0.5 0.875 0.75 0.625 0.875 0.75 0.75 0.875 0.75 0.875 0.875 0.75 1 0.875 0.75 0 1 0.75 0.125 1 0.75 0.25 1 0.75 0.375 1 0.75 0.5 1 0.75 0.625 1 0.75 0.75 1 0.75 0.875 1 0.75 1 1 0.75 0 0 0.875 0.125 0 0.875 0.25 0 0.875 0.375 0 0.875 0.5 0 0.875 0.625 0 0.875 0.75 0 0.875 0.875 0 0.875 1 0 0.875 0 0.125 0.875 0.125 0.125 0.875 0.25 0.125 0.875 0.375 0.125 0.875 0.5 0.125 0.875 0.625 0.125 0.875 0.75 0.125 0.875 0.875 0.125 0.875 1 0.125 0.875 0 0.25 0.875 0.125 0.25 0.875 0.25 0.25 0.875 0.375 0.25 0.875 0.5 0.25 0.875 0.625 0.25 0.875 0.75 0.25 0.875 0.875 0.25 0.875 1 0.25 0.875 0 0.375 0.875 0.125 0.375 0.875 0.25 0.375 0.875 0.375 0.375 0.875 0.5 0.375 0.875 0.625 0.375 0.875 0.75 0.375 0.875 0.875 0.375 0.875 1 0.375 0.875 0 0.5 0.875 0.125 0.5 0.875 0.25 0.5 0.875 0.375 0.5 0.875 0.5 0.5 0.875 0.625 0.5 0.875 0.75 0.5 0.875 0.875 0.5 0.875 1 0.5 0.875 0 0.625 0.875 0.125 0.625 0.875 0.25 0.625 0.875 0.375 0.625 0.875 0.5 0.625 0.875 0.625 0.625 0.875 0.75 0.625 0.875 0.875 0.625 0.875 1 0.625 0.875 0 0.75 0.875 0.125 0.75 0.875 0.25 0.75 0.875 0.375 0.75 0.875 0.5 0.75 0.875 0.625 0.75 0.875 0.75 0.75 0.875 0.875 0.75 0.875 1 0.75 0.875 0 0.875 0.875 0.125 0.875 0.875 0.25 0.875 0.875 0.375 0.875 0.875 0.5 0.875 0.875 0.625 0.875 0.875 0.75 0.875 0.875 0.875 0.875 0.875 1 0.875 0.875 0 1 0.875 0.125 1 0.875 0.25 1 0.875 0.375 1 0.875 0.5 1 0.875 0.625 1 0.875 0.75 1 0.875 0.875 1 0.875 1 1 0.875 0 0 1 0.125 0 1 0.25 0 1 0.375 0 1 0.5 0 1 0.625 0 1 0.75 0 1 0.875 0 1 1 0 1 0 0.125 1 0.125 0.125 1 0.25 0.125 1 0.375 0.125 1 0.5 0.125 1 0.625 0.125 1 0.75 0.125 1 0.875 0.125 1 1 0.125 1 0 0.25 1 0.125 0.25 1 0.25 0.25 1 0.375 0.25 1 0.5 0.25 1 0.625 0.25 1 0.75 0.25 1 0.875 0.25 1 1 0.25 1 0 0.375 1 0.125 0.375 1 0.25 0.375 1 0.375 0.375 1 0.5 0.375 1 0.625 0.375 1 0.75 0.375 1 0.875 0.375 1 1 0.375 1 0 0.5 1 0.125 0.5 1 0.25 0.5 1 0.375 0.5 1 0.5 0.5 1 0.625 0.5 1 0.75 0.5 1 0.875 0.5 1 1 0.5 1 0 0.625 1 0.125 0.625 1 0.25 0.625 1 0.375 0.625 1 0.5 0.625 1 0.625 0.625 1 0.75 0.625 1 0.875 0.625 1 1 0.625 1 0 0.75 1 0.125 0.75 1 0.25 0.75 1 0.375 0.75 1 0.5 0.75 1 0.625 0.75 1 0.75 0.75 1 0.875 0.75 1 1 0.75 1 0 0.875 1 0.125 0.875 1 0.25 0.875 1 0.375 0.875 1 0.5 0.875 1 0.625 0.875 1 0.75 0.875 1 0.875 0.875 1 1 0.875 1 0 1 1 0.125 1 1 0.25 1 1 0.375 1 1 0.5 1 1 0.625 1 1 0.75 1 1 0.875 1 1 1 1 1         </DataArray>
      </Points>
    </Piece>
  </StructuredGrid>
</VTKFile>
