<?xml version="1.0"?>
<VTKFile type="StructuredGrid" version="0.1" byte_order="LittleEndian">
  <StructuredGrid WholeExtent="0 8 0 8 0 8">
    <Piece Extent="0 8 0 8 0 8">
      <PointData>
      </PointData>
      <CellData>
        <DataArray Name="vy" NumberOfComponents="1" type="Float32" format="ascii">
0.41372181070799957103 0.68442268381505555475 0.70781575496997306551 0.69459081053743032541 0.69458549032605976237 0.70781351083511845346 0.68442307678595404319 0.41372259957876417191 0.40006235175157689454 0.67849126810501947382 0.70336773979511746369 0.69002424165875941853 0.69008009559430349977 0.70338016963368543699 0.67849084531290326794 0.40006429114013669635 0.36828700286079885107 0.65347029508096676764 0.6853165609440760031 0.67438395519477345452 0.67442303532686243006 0.6853252720101394857 0.65346808523424060322 0.3682880584940796953 0.34285982709531831469 0.62758255370549120844 0.66792658239912916507 0.66058453290953156323 0.66062868082718240181 0.66793154997847525856 0.62757819573675299729 0.34285949903903634173 0.32495038305452367267 0.60569391949286444099 0.65404603664413862862 0.65060382484847267826 0.65061239162298412086 0.65404180570787850968 0.60569172334758858423 0.32495046205645822246 0.31253575184110249374 0.58855306733412349196 0.64370394189731428014 0.64418625879632573916 0.64414401971886992015 0.64368454518021489541 0.58855663051300310951 0.31253483841092544182 0.30199669385380162323 0.57371512243259947805 0.63359587148708751414 0.6370709541575769741 0.63705484009515334076 0.63358061238376217617 0.57371722195496577257 0.30199552874330043428 0.30375094022056164933 0.57441786641424719129 0.63524399646705309586 0.64055415821771599649 0.64058083107600505279 0.63523265653551097554 0.57442011353467126167 0.30375005388619391589 0.68441864379598593704 1.203686911167640039 1.2612271066050382284 1.2419448230152279056 1.241951961547355987 1.2612406423878494977 1.2036842908068472457 0.68442677058219170139 0.6784895903674463824 1.2117933160102567491 1.270971881894185973 1.2512195533969725503 1.2512030359509334065 1.2709676394272162447 1.2118019579176673162 0.67849504391189507935 0.65346743123376471729 1.2110434595799928204 1.2802367682416622152 1.2624130776674589161 1.2624092244959843612 1.2802365984866768134 1.2110579377345156438 0.65346995151695519422 0.62757973636707620191 1.2040818267384232332 1.287111977822070541 1.2725442705942553445 1.2725416734098478067 1.2871131581637522689 1.2040958042349034773 0.62758171586772426576 0.60569236939451187585 1.1936942568245099139 1.2912320781782304913 1.2805529274673443929 1.2805645143770871819 1.2912365891958328401 1.1936908237167396241 0.60569360525605409062 0.58854964052146552245 1.1815358566323785894 1.2930388055387029844 1.2869502009542539422 1.286959163098415404 1.2930486076854093014 1.1815213562556441396 0.58855759362529713741 0.57371382639703316642 1.1659987472180004531 1.289432077909046459 1.2881152960695216869 1.2881123225444228719 1.289416446063920807 1.1660032716894470628 0.57371874847291437494 0.57441522478252060591 1.1615205547431961541 1.2923870964151289442 1.2969590675037834249 1.2968974291887982453 1.2923732708359279009 1.1615066027328133647 0.57442159329730124728 0.70781251850492366007 1.261224492483432158 1.3173291421741797347 1.2930130188543200731 1.2930239032465744575 1.317323437184809265 1.2612392611259621855 0.70781910954616533704 0.70337137683360417828 1.2709641414752621547 1.3290693169435998655 1.304370675343768049 1.3043912043886034535 1.3290727262936057329 1.2709731816580132069 0.70337809743789547756 0.68531603379094596651 1.2802348792361950558 1.3502613390180402408 1.3280985572639960601 1.3280956288898604356 1.3502668787477223322 1.2802352292632137587 0.68532906533307857977 0.6679251736691205199 1.2871098801938281042 1.3730330361558926722 1.3547234333401587669 1.3547313757349079832 1.3730363426538714222 1.287117173913160606 0.66793464621377240942 0.65404294323828104929 1.291226644652848865 1.393189323924895584 1.3790774919017099176 1.3790850753778005622 1.3931957711457918503 1.2912415453458994108 0.65404510677669303043 0.64369766825349195027 1.2930345144917645417 1.4100187626936344643 1.4004972691604860024 1.4005025615331856415 1.4100221564702715149 1.293050278296372646 0.64368922574139164627 0.63358592786176515244 1.2894252937241246215 1.4192393284005078158 1.414333513120863417 1.4143335684809790198 1.4192645989684260499 1.2894194526450821758 0.63358224331160817311 0.63523858209215566806 1.2923806145034391069 1.4301798671265022467 1.4307691210417767813 1.4307950969363187887 1.4301841127004530918 1.2923766309634994176 0.63523281094250105827 0.69458482013841382763 1.2419446135501854833 1.2930101074811801709 1.2658142842742519107 1.2658107234772870697 1.2930243511386925181 1.2419538963397069864 0.69458382165361265415 0.69005348289881174306 1.2512061624359391843 1.3043827131077119219 1.276731804438459239 1.2767427047802677453 1.3043809969812620864 1.2512112777640409522 0.69005767391731653859 0.67438287435394117519 1.2624066128367033013 1.3280945655492748525 1.3032517966891241645 1.3032622938741498242 1.3280960110680688491 1.262417163294866862 0.67441436755884709431 0.66060118297885361827 1.2725361019460867951 1.354722060203003231 1.3341688384936019052 1.3341679793822991407 1.3547349214060524503 1.2725433996977839612 0.66062422871056536433 0.6506127999036560583 1.2805537885510251961 1.3790737940482877821 1.3631833860884956522 1.3631790560877550256 1.3790840564805084689 1.2805627514975983505 0.65061588646742340991 0.64418338555054344141 1.2869409892590537581 1.4005008228378248436 1.3896260136285660813 1.3896297863921529547 1.400503606553870517 1.2869603726889751183 0.64414389200666632984 0.63706841332116503906 1.2881012794565638302 1.4143386925659653386 1.4083510132127505798 1.4083556958348670829 1.4143343056039334726 1.2881164018690816064 0.63705570233370212296 0.64055685772229220554 1.2969433398226968279 1.4307743019481660163 1.4302507906748231914 1.4302532223178494597 1.4307926182994357145 1.2969046086788216243 0.64058658722143602127 0.6945910996756489153 1.2419494032970797015 1.293026569347150323 1.2658128937274222281 1.2658180967911203396 1.2930159266412382113 1.2419437950648539726 0.69458889440800408721 0.69004862570110958586 1.2512210146620581508 1.3043728889619479183 1.2767507051181612443 1.2767337730959289477 1.304384073870489047 1.2512085289016159351 0.69004537869603554956 0.67442700712156389287 1.2624138250373972969 1.328101046768451754 1.303256833271900561 1.3032531945733110135 1.3281064150716916927 1.2624019487498858716 0.6743896873729512409 0.66061406232313057973 1.2725495080915032453 1.3547291173907536344 1.3341682107110950373 1.3341781228840656759 1.3547225931990569681 1.2725436696994065766 0.66058583474083454323 0.65060312034930101177 1.2805675793782043126 1.379086543295296341 1.3631780457978124321 1.3631898460779505733 1.3790820443367355352 1.2805514542492870689 0.65060062489135805919 0.64414867737758207955 1.2869689595116304837 1.4004975161522033034 1.3896300505187288987 1.3896256794426806724 1.4005015695649116747 1.2869470595477059405 0.64418620111802082917 0.63705886321779980896 1.2881239869580551893 1.4143281561898677356 1.4083505919979315557 1.4083556044786256223 1.4143314168276395204 1.2881138504721303395 0.63706935180906476557 0.64057903800607718381 1.2969167880518150948 1.4307914106476260496 1.4302539443758195414 1.4302496255514343115 1.4307703137917007208 1.296947859982908513 0.64054768089982749846 0.70781663600833510941 1.2612439416968768136 1.3173205833130146036 1.2930242972513716904 1.2930157415108010088 1.3173354386786622072 1.2612274710551867329 0.70781017936912549171 0.70337935070596391274 1.2709699198325556946 1.3290718769119254095 1.3043735802123759271 1.304385219565547871 1.3290834276631184885 1.270961611313582873 0.7033689020252498203 0.6853273755337626616 1.2802408685068062955 1.3502587661353735449 1.328095259523619287 1.3281086091585514453 1.3502659409118380474 1.2802359456058931553 0.68531372048745720083 0.66793212654485467628 1.2871190870075417401 1.3730329225091879586 1.3547243077244859322 1.3547295644315806573 1.3730417241359578195 1.2871092606971958894 0.66792100803293563693 0.65404405724925329668 1.2912453487122128593 1.3931890445577610471 1.3790871617084901057 1.3790766598404078369 1.3931950171119045212 1.2912293771151650557 0.65404133270037057013 0.64369184460629935707 1.2930517558807566036 1.4100253996035219117 1.4004959206948393025 1.4005077184306684579 1.410019058551061244 1.2930325207838144763 0.64370367416839890939 0.63358828628618835133 1.2894284998190883584 1.4192549898699164945 1.4143448222064030073 1.4143206436567927753 1.4192486938036763533 1.289424070248800902 0.63359558245514147057 0.63523839007332216777 1.2923791759875757901 1.4301868119336271779 1.430797586814825717 1.4307668519227290105 1.4301746517367206479 1.2923882984665642226 0.6352427839226495454 0.68442659860540155936 1.2036796819971817829 1.2612374283611109682 1.2419482819763036918 1.2419466634827127649 1.2612299745948933882 1.2036876659085651298 0.6844195674343053204 0.67849056256821749233 1.2118032762283914572 1.2709620914991255347 1.2512151126415334002 1.2512093015974470323 1.270967222251765838 1.2117969739137661733 0.67848778604623793953 0.65347071667118916682 1.211055903323491556 1.2802377354061695858 1.2624134824909214458 1.2624037806328767264 1.2802358014180532653 1.2110477994094717147 0.65346691554290003978 0.62758140553249597282 1.2040900376879193345 1.2871181786934744462 1.2725471796313205797 1.272539542059791362 1.2871120844279619888 1.2040839277202342039 0.62757979551149256636 0.60569264382378873446 1.1936918983609932088 1.2912405277014984417 1.2805593859355091091 1.280558710838549441 1.2912337338152457544 1.1936916915273059203 0.60569339681215916826 0.58855677010028051299 1.1815293811151124093 1.2930406855496863194 1.2869661050898857368 1.2869418799004248566 1.2930409822872397374 1.1815367649464314503 0.58855191544111462587 0.57371825760397698879 1.1659984304939696731 1.2894246232862760504 1.2881026125171870511 1.2881252683030972594 1.2894241718380663464 1.1660061563805781404 0.57371356051141353394 0.57442125983971470404 1.1615098858147818728 1.2923711958366612684 1.2969006543443279966 1.2969554839782222455 1.2923931525061984615 1.1615145389787278063 0.57441793812890329374 0.41372180542312131379 0.68442215993109400962 0.70781559521952075453 0.69458467293978998214 0.69458766259492343842 0.70781357357592911139 0.68442365740844801625 0.41372156060202991412 0.40006471159481704625 0.67848942003902312781 0.70338316547607748763 0.69006659866714969986 0.69003422940482228576 0.70336664649809965688 0.67849144871666400292 0.40006348449198442241 0.36828681864446233263 0.65346817885951813398 0.68532960365635287037 0.67442274385405043269 0.67438419606817412433 0.68531475854012902094 0.65346845460367519731 0.36828787672778340312 0.34285873444065023685 0.62758000088551035844 0.66793266837799691871 0.66062973201902674969 0.66058235037132551071 0.66792215359147821818 0.62758189927461494051 0.34286008602322332051 0.32495101688568284182 0.60569023125172116728 0.65404292756399373676 0.65061550829852821121 0.65060067655914044504 0.65404266934358423757 0.60569613843926595198 0.32494894773870286464 0.31253496444197770288 0.58855343384491665137 0.64368814533906471009 0.64414950383110758381 0.64418232528807894965 0.64370577828247077523 0.58855278596340920849 0.31253535726230591285 0.3019959496561716028 0.57371672723056177379 0.63357388119715185582 0.63704544846309407724 0.63708102880932748757 0.63360166520883942631 0.57371532228221289174 0.30199709036267163853 0.30375016260379600341 0.57441906563474209868 0.63523037394403247813 0.64058027536955663983 0.64055484580229182789 0.63524552226027930502 0.57441897128159991048 0.30375116394592993618 
        </DataArray>
      </CellData>
      <Points>
        <DataArray Name="m" NumberOfComponents="3" type="Float32" format="ascii">
0 0 0 0.125 0 0 0.25 0 0 0.375 0 0 0.5 0 0 0.625 0 0 0.75 0 0 0.875 0 0 1 0 0 0 0.125 0 0.125 0.125 0 0.25 0.125 0 0.375 0.125 0 0.5 0.125 0 0.625 0.125 0 0.75 0.125 0 0.875 0.125 0 1 0.125 0 0 0.25 0 0.125 0.25 0 0.25 0.25 0 0.375 0.25 0 0.5 0.25 0 0.625 0.25 0 0.75 0.25 0 0.875 0.25 0 1 0.25 0 0 0.375 0 0.125 0.375 0 0.25 0.375 0 0.375 0.375 0 0.5 0.375 0 0.625 0.375 0 0.75 0.375 0 0.875 0.375 0 1 0.375 0 0 0.5 0 0.125 0.5 0 0.25 0.5 0 0.375 0.5 0 0.5 0.5 0 0.625 0.5 0 0.75 0.5 0 0.875 0.5 0 1 0.5 0 0 0.625 0 0.125 0.625 0 0.25 0.625 0 0.375 0.625 0 0.5 0.625 0 0.625 0.625 0 0.75 0.625 0 0.875 0.625 0 1 0.625 0 0 0.75 0 0.125 0.75 0 0.25 0.75 0 0.375 0.75 0 0.5 0.75 0 0.625 0.75 0 0.75 0.75 0 0.875 0.75 0 1 0.75 0 0 0.875 0 0.125 0.875 0 0.25 0.875 0 0.375 0.875 0 0.5 0.875 0 0.625 0.875 0 0.75 0.875 0 0.875 0.875 0 1 0.875 0 0 1 0 0.125 1 0 0.25 1 0 0.375 1 0 0.5 1 0 0.625 1 0 0.75 1 0 0.875 1 0 1 1 0 0 0 0.125 0.125 0 0.125 0.25 0 0.125 0.375 0 0.125 0.5 0 0.125 0.625 0 0.125 0.75 0 0.125 0.875 0 0.125 1 0 0.125 0 0.125 0.125 0.125 0.125 0.125 0.25 0.125 0.125 0.375 0.125 0.125 0.5 0.125 0.125 0.625 0.125 0.125 0.75 0.125 0.125 0.875 0.125 0.125 1 0.125 0.125 0 0.25 0.125 0.125 0.25 0.125 0.25 0.25 0.125 0.375 0.25 0.125 0.5 0.25 0.125 0.625 0.25 0.125 0.75 0.25 0.125 0.875 0.25 0.125 1 0.25 0.125 0 0.375 0.125 0.125 0.375 0.125 0.25 0.375 0.125 0.375 0.375 0.125 0.5 0.375 0.125 0.625 0.375 0.125 0.75 0.375 0.125 0.875 0.375 0.125 1 0.375 0.125 0 0.5 0.125 0.125 0.5 0.125 0.25 0.5 0.125 0.375 0.5 0.125 0.5 0.5 0.125 0.625 0.5 0.125 0.75 0.5 0.125 0.875 0.5 0.125 1 0.5 0.125 0 0.625 0.125 0.125 0.625 0.125 0.25 0.625 0.125 0.375 0.625 0.125 0.5 0.625 0.125 0.625 0.625 0.125 0.75 0.625 0.125 0.875 0.625 0.125 1 0.625 0.125 0 0.75 0.125 0.125 0.75 0.125 0.25 0.75 0.125 0.375 0.75 0.125 0.5 0.75 0.125 0.625 0.75 0.125 0.75 0.75 0.125 0.875 0.75 0.125 1 0.75 0.125 0 0.875 0.125 0.125 0.875 0.125 0.25 0.875 0.125 0.375 0.875 0.125 0.5 0.875 0.125 0.625 0.875 0.125 0.75 0.875 0.125 0.875 0.875 0.125 1 0.875 0.125 0 1 0.125 0.125 1 0.125 0.25 1 0.125 0.375 1 0.125 0.5 1 0.125 0.625 1 0.125 0.75 1 0.125 0.875 1 0.125 1 1 0.125 0 0 0.25 0.125 0 0.25 0.25 0 0.25 0.375 0 0.25 0.5 0 0.25 0.625 0 0.25 0.75 0 0.25 0.875 0 0.25 1 0 0.25 0 0.125 0.25 0.125 0.125 0.25 0.25 0.125 0.25 0.375 0.125 0.25 0.5 0.125 0.25 0.625 0.125 0.25 0.75 0.125 0.25 0.875 0.125 0.25 1 0.125 0.25 0 0.25 0.25 0.125 0.25 0.25 0.25 0.25 0.25 0.375 0.25 0.25 0.5 0.25 0.25 0.625 0.25 0.25 0.75 0.25 0.25 0.875 0.25 0.25 1 0.25 0.25 0 0.375 0.25 0.125 0.375 0.25 0.25 0.375 0.25 0.375 0.375 0.25 0.5 0.375 0.25 0.625 0.375 0.25 0.75 0.375 0.25 0.875 0.375 0.25 1 0.375 0.25 0 0.5 0.25 0.125 0.5 0.25 0.25 0.5 0.25 0.375 0.5 0.25 0.5 0.5 0.25 0.625 0.5 0.25 0.75 0.5 0.25 0.875 0.5 0.25 1 0.5 0.25 0 0.625 0.25 0.125 0.625 0.25 0.25 0.625 0.25 0.375 0.625 0.25 0.5 0.625 0.25 0.625 0.625 0.25 0.75 0.625 0.25 0.875 0.625 0.25 1 0.625 0.25 0 0.75 0.25 0.125 0.75 0.25 0.25 0.75 0.25 0.375 0.75 0.25 0.5 0.75 0.25 0.625 0.75 0.25 0.75 0.75 0.25 0.875 0.75 0.25 1 0.75 0.25 0 0.875 0.25 0.125 0.875 0.25 0.25 0.875 0.25 0.375 0.875 0.25 0.5 0.875 0.25 0.625 0.875 0.25 0.75 0.875 0.25 0.875 0.875 0.25 1 0.875 0.25 0 1 0.25 0.125 1 0.25 0.25 1 0.25 0.375 1 0.25 0.5 1 0.25 0.625 1 0.25 0.75 1 0.25 0.875 1 0.25 1 1 0.25 0 0 0.375 0.125 0 0.375 0.25 0 0.375 0.375 0 0.375 0.5 0 0.375 0.625 0 0.375 0.75 0 0.375 0.875 0 0.375 1 0 0.375 0 0.125 0.375 0.125 0.125 0.375 0.25 0.125 0.375 0.375 0.125 0.375 0.5 0.125 0.375 0.625 0.125 0.375 0.75 0.125 0.375 0.875 0.125 0.375 1 0.125 0.375 0 0.25 0.375 0.125 0.25 0.375 0.25 0.25 0.375 0.375 0.25 0.375 0.5 0.25 0.375 0.625 0.25 0.375 0.75 0.25 0.375 0.875 0.25 0.375 1 0.25 0.375 0 0.375 0.375 0.125 0.375 0.375 0.25 0.375 0.375 0.375 0.375 0.375 0.5 0.375 0.375 0.625 0.375 0.375 0.75 0.375 0.375 0.875 0.375 0.375 1 0.375 0.375 0 0.5 0.375 0.125 0.5 0.375 0.25 0.5 0.375 0.375 0.5 0.375 0.5 0.5 0.375 0.625 0.5 0.375 0.75 0.5 0.375 0.875 0.5 0.375 1 0.5 0.375 0 0.625 0.375 0.125 0.625 0.375 0.25 0.625 0.375 0.375 0.625 0.375 0.5 0.625 0.375 0.625 0.625 0.375 0.75 0.625 0.375 0.875 0.625 0.375 1 0.625 0.375 0 0.75 0.375 0.125 0.75 0.375 0.25 0.75 0.375 0.375 0.75 0.375 0.5 0.75 0.375 0.625 0.75 0.375 0.75 0.75 0.375 0.875 0.75 0.375 1 0.75 0.375 0 0.875 0.375 0.125 0.875 0.375 0.25 0.875 0.375 0.375 0.875 0.375 0.5 0.875 0.375 0.625 0.875 0.375 0.75 0.875 0.375 0.875 0.875 0.375 1 0.875 0.375 0 1 0.375 0.125 1 0.375 0.25 1 0.375 0.375 1 0.375 0.5 1 0.375 0.625 1 0.375 0.75 1 0.375 0.875 1 0.375 1 1 0.375 0 0 0.5 0.125 0 0.5 0.25 0 0.5 0.375 0 0.5 0.5 0 0.5 0.625 0 0.5 0.75 0 0.5 0.875 0 0.5 1 0 0.5 0 0.125 0.5 0.125 0.125 0.5 0.25 0.125 0.5 0.375 0.125 0.5 0.5 0.125 0.5 0.625 0.125 0.5 0.75 0.125 0.5 0.875 0.125 0.5 1 0.125 0.5 0 0.25 0.5 0.125 0.25 0.5 0.25 0.25 0.5 0.375 0.25 0.5 0.5 0.25 0.5 0.625 0.25 0.5 0.75 0.25 0.5 0.875 0.25 0.5 1 0.25 0.5 0 0.375 0.5 0.125 0.375 0.5 0.25 0.375 0.5 0.375 0.375 0.5 0.5 0.375 0.5 0.625 0.375 0.5 0.75 0.375 0.5 0.875 0.375 0.5 1 0.375 0.5 0 0.5 0.5 0.125 0.5 0.5 0.25 0.5 0.5 0.375 0.5 0.5 0.5 0.5 0.5 0.625 0.5 0.5 0.75 0.5 0.5 0.875 0.5 0.5 1 0.5 0.5 0 0.625 0.5 0.125 0.625 0.5 0.25 0.625 0.5 0.375 0.625 0.5 0.5 0.625 0.5 0.625 0.625 0.5 0.75 0.625 0.5 0.875 0.625 0.5 1 0.625 0.5 0 0.75 0.5 0.125 0.75 0.5 0.25 0.75 0.5 0.375 0.75 0.5 0.5 0.75 0.5 0.625 0.75 0.5 0.75 0.75 0.5 0.875 0.75 0.5 1 0.75 0.5 0 0.875 0.5 0.125 0.875 0.5 0.25 0.875 0.5 0.375 0.875 0.5 0.5 0.875 0.5 0.625 0.875 0.5 0.75 0.875 0.5 0.875 0.875 0.5 1 0.875 0.5 0 1 0.5 0.125 1 0.5 0.25 1 0.5 0.375 1 0.5 0.5 1 0.5 0.625 1 0.5 0.75 1 0.5 0.875 1 0.5 1 1 0.5 0 0 0.625 0.125 0 0.625 0.25 0 0.625 0.375 0 0.625 0.5 0 0.625 0.625 0 0.625 0.75 0 0.625 0.875 0 0.625 1 0 0.625 0 0.125 0.625 0.125 0.125 0.625 0.25 0.125 0.625 0.375 0.125 0.625 0.5 0.125 0.625 0.625 0.125 0.625 0.75 0.125 0.625 0.875 0.125 0.625 1 0.125 0.625 0 0.25 0.625 0.125 0.25 0.625 0.25 0.25 0.625 0.375 0.25 0.625 0.5 0.25 0.625 0.625 0.25 0.625 0.75 0.25 0.625 0.875 0.25 0.625 1 0.25 0.625 0 0.375 0.625 0.125 0.375 0.625 0.25 0.375 0.625 0.375 0.375 0.625 0.5 0.375 0.625 0.625 0.375 0.625 0.75 0.375 0.625 0.875 0.375 0.625 1 0.375 0.625 0 0.5 0.625 0.125 0.5 0.625 0.25 0.5 0.625 0.375 0.5 0.625 0.5 0.5 0.625 0.625 0.5 0.625 0.75 0.5 0.625 0.875 0.5 0.625 1 0.5 0.625 0 0.625 0.625 0.125 0.625 0.625 0.25 0.625 0.625 0.375 0.625 0.625 0.5 0.625 0.625 0.625 0.625 0.625 0.75 0.625 0.625 0.875 0.625 0.625 1 0.625 0.625 0 0.75 0.625 0.125 0.75 0.625 0.25 0.75 0.625 0.375 0.75 0.625 0.5 0.75 0.625 0.625 0.75 0.625 0.75 0.75 0.625 0.875 0.75 0.625 1 0.75 0.625 0 0.875 0.625 0.125 0.875 0.625 0.25 0.875 0.625 0.375 0.875 0.625 0.5 0.875 0.625 0.625 0.875 0.625 0.75 0.875 0.625 0.875 0.875 0.625 1 0.875 0.625 0 1 0.625 0.125 1 0.625 0.25 1 0.625 0.375 1 0.625 0.5 1 0.625 0.625 1 0.625 0.75 1 0.625 0.875 1 0.625 1 1 0.625 0 0 0.75 0.125 0 0.75 0.25 0 0.75 0.375 0 0.75 0.5 0 0.75 0.625 0 0.75 0.75 0 0.75 0.875 0 0.75 1 0 0.75 0 0.125 0.75 0.125 0.125 0.75 0.25 0.125 0.75 0.375 0.125 0.75 0.5 0.125 0.75 0.625 0.125 0.75 0.75 0.125 0.75 0.875 0.125 0.75 1 0.125 0.75 0 0.25 0.75 0.125 0.25 0.75 0.25 0.25 0.75 0.375 0.25 0.75 0.5 0.25 0.75 0.625 0.25 0.75 0.75 0.25 0.75 0.875 0.25 0.75 1 0.25 0.75 0 0.375 0.75 0.125 0.375 0.75 0.25 0.375 0.75 0.375 0.375 0.75 0.5 0.375 0.75 0.625 0.375 0.75 0.75 0.375 0.75 0.875 0.375 0.75 1 0.375 0.75 0 0.5 0.75 0.125 0.5 0.75 0.25 0.5 0.75 0.375 0.5 0.75 0.5 0.5 0.75 0.625 0.5 0.75 0.75 0.5 0.75 0.875 0.5 0.75 1 0.5 0.75 0 0.625 0.75 0.125 0.625 0.75 0.25 0.625 0.75 0.375 0.625 0.75 0.5 0.625 0.75 0.625 0.625 0.75 0.75 0.625 0.75 0.875 0.625 0.75 1 0.625 0.75 0 0.75 0.75 0.125 0.75 0.75 0.25 0.75 0.75 0.375 0.75 0.75 0.5 0.75 0.75 0.625 0.75 0.75 0.75 0.75 0.75 0.875 0.75 0.75 1 0.75 0.75 0 0.875 0.75 0.125 0.875 0.75 0.25 0.875 0.75 0.375 0.875 0.75 0.5 0.875 0.75 0.625 0.875 0.75 0.75 0.875 0.75 0.875 0.875 0.75 1 0.875 0.75 0 1 0.75 0.125 1 0.75 0.25 1 0.75 0.375 1 0.75 0.5 1 0.75 0.625 1 0.75 0.75 1 0.75 0.875 1 0.75 1 1 0.75 0 0 0.875 0.125 0 0.875 0.25 0 0.875 0.375 0 0.875 0.5 0 0.875 0.625 0 0.875 0.75 0 0.875 0.875 0 0.875 1 0 0.875 0 0.125 0.875 0.125 0.125 0.875 0.25 0.125 0.875 0.375 0.125 0.875 0.5 0.125 0.875 0.625 0.125 0.875 0.75 0.125 0.875 0.875 0.125 0.875 1 0.125 0.875 0 0.25 0.875 0.125 0.25 0.875 0.25 0.25 0.875 0.375 0.25 0.875 0.5 0.25 0.875 0.625 0.25 0.875 0.75 0.25 0.875 0.875 0.25 0.875 1 0.25 0.875 0 0.375 0.875 0.125 0.375 0.875 0.25 0.375 0.875 0.375 0.375 0.875 0.5 0.375 0.875 0.625 0.375 0.875 0.75 0.375 0.875 0.875 0.375 0.875 1 0.375 0.875 0 0.5 0.875 0.125 0.5 0.875 0.25 0.5 0.875 0.375 0.5 0.875 0.5 0.5 0.875 0.625 0.5 0.875 0.75 0.5 0.875 0.875 0.5 0.875 1 0.5 0.875 0 0.625 0.875 0.125 0.625 0.875 0.25 0.625 0.875 0.375 0.625 0.875 0.5 0.625 0.875 0.625 0.625 0.875 0.75 0.625 0.875 0.875 0.625 0.875 1 0.625 0.875 0 0.75 0.875 0.125 0.75 0.875 0.25 0.75 0.875 0.375 0.75 0.875 0.5 0.75 0.875 0.625 0.75 0.875 0.75 0.75 0.875 0.875 0.75 0.875 1 0.75 0.875 0 0.875 0.875 0.125 0.875 0.875 0.25 0.875 0.875 0.375 0.875 0.875 0.5 0.875 0.875 0.625 0.875 0.875 0.75 0.875 0.875 0.875 0.875 0.875 1 0.875 0.875 0 1 0.875 0.125 1 0.875 0.25 1 0.875 0.375 1 0.875 0.5 1 0.875 0.625 1 0.875 0.75 1 0.875 0.875 1 0.875 1 1 0.875 0 0 1 0.125 0 1 0.25 0 1 0.375 0 1 0.5 0 1 0.625 0 1 0.75 0 1 0.875 0 1 1 0 1 0 0.125 1 0.125 0.125 1 0.25 0.125 1 0.375 0.125 1 0.5 0.125 1 0.625 0.125 1 0.75 0.125 1 0.875 0.125 1 1 0.125 1 0 0.25 1 0.125 0.25 1 0.25 0.25 1 0.375 0.25 1 0.5 0.25 1 0.625 0.25 1 0.75 0.25 1 0.875 0.25 1 1 0.25 1 0 0.375 1 0.125 0.375 1 0.25 0.375 1 0.375 0.375 1 0.5 0.375 1 0.625 0.375 1 0.75 0.375 1 0.875 0.375 1 1 0.375 1 0 0.5 1 0.125 0.5 1 0.25 0.5 1 0.375 0.5 1 0.5 0.5 1 0.625 0.5 1 0.75 0.5 1 0.875 0.5 1 1 0.5 1 0 0.625 1 0.125 0.625 1 0.25 0.625 1 0.375 0.625 1 0.5 0.625 1 0.625 0.625 1 0.75 0.625 1 0.875 0.625 1 1 0.625 1 0 0.75 1 0.125 0.75 1 0.25 0.75 1 0.375 0.75 1 0.5 0.75 1 0.625 0.75 1 0.75 0.75 1 0.875 0.75 1 1 0.75 1 0 0.875 1 0.125 0.875 1 0.25 0.875 1 0.375 0.875 1 0.5 0.875 1 0.625 0.875 1 0.75 0.875 1 0.875 0.875 1 1 0.875 1 0 1 1 0.125 1 1 0.25 1 1 0.375 1 1 0.5 1 1 0.625 1 1 0.75 1 1 0.875 1 1 1 1 1         </DataArray>
      </Points>
    </Piece>
  </StructuredGrid>
</VTKFile>
