<?xml version="1.0"?>
<VTKFile type="StructuredGrid" version="0.1" byte_order="LittleEndian">
  <StructuredGrid WholeExtent="0 8 0 8 0 8">
    <Piece Extent="0 8 0 8 0 8">
      <PointData>
      </PointData>
      <CellData>
        <DataArray Name="vy" NumberOfComponents="1" type="Float32" format="ascii">
0.4072031147475259627 0.6785012963698611177 0.70327844644655101991 0.69000955657112317265 0.69002345108049500944 0.70328344943987608495 0.67849711840519422168 0.40719635849758706314 0.39398383079678483965 0.67269719394616978025 0.69898165330957262587 0.68564831836046868929 0.6856671337274586886 0.69898776826808761697 0.67269265497654706643 0.39397989582914144657 0.36321729337937957993 0.64825365429668446726 0.68135197437444039448 0.6704555791160009548 0.67044799287154610568 0.68135315899767712189 0.64824477908894340139 0.36321522027043828817 0.3384589858342977875 0.6228902844845713993 0.66423820637763175689 0.65694717778679012632 0.65688683429968008909 0.6642288295091025585 0.62287593979015520862 0.3384575879816374977 0.32069858196895184577 0.60115289311135367001 0.65035795060427503689 0.6469012800531626084 0.64685839798181632432 0.65035157268270760156 0.6011418678292160811 0.32069505926701130649 0.30781447941799555679 0.58353424373855145024 0.63960018038983978972 0.64000002225657570687 0.64000180191988831346 0.63960578561420611265 0.583529867220313192 0.30780876229328113514 0.29656837218055853711 0.56776770750105454155 0.62917994606639338073 0.63281437707339927012 0.6328592220320762296 0.62919283357429578452 0.56776486680602855639 0.296562205304920945 0.29681559584455047274 0.5669866709216819789 0.62949382915168006214 0.63527335614312674394 0.63525339530288915668 0.62949540926307068212 0.56698524025543806104 0.29681152495492169052 0.67850129636907652309 1.2034771266387609412 1.2643383990649008641 1.2448808990297268728 1.2448770122663961324 1.2643234574602344455 1.2034673092950698425 0.67849711840568305288 0.67269719394732963025 1.2112662420533177876 1.2738172520008146371 1.2539180758654893122 1.2539099772584532122 1.27380905088144325 1.2112574592510201299 0.67269265497574581847 0.64825365429604708822 1.2101668558597473702 1.2826056311985478686 1.2647352787613552749 1.2647456930715448298 1.2826030077400250029 1.2101576984255433267 0.64824477908932720549 0.62289028448492211876 1.2030278269889547182 1.2891344763241083804 1.2745925177175869702 1.2746019185092076764 1.2891371586182387432 1.2030152124286153104 0.62287593978989141963 0.60115289311099584513 1.1927154515169713367 1.2932080035971231791 1.2825782687898714673 1.28258055730070053 1.2932048669317399714 1.1927095067630029135 0.60114186782943679344 0.58353424373901452427 1.1807263712815094792 1.2952699014564561519 1.289189736808521447 1.2891875570900483972 1.2952649020310369465 1.1807217017938695935 0.58352986721999433595 0.56776770750076976935 1.1654521699806288382 1.2923117909729240349 1.2908723019558319134 1.2908688265417092023 1.2923151713145293318 1.1654308802243493748 0.56776486680621385261 0.56698667092296606285 1.1606498490603791574 1.2959335945389054423 1.3002094574980818109 1.30025321089519319 1.2959511918688151333 1.1606338964692346494 0.56698524025456353836 0.70327844644996351242 1.26433839906223211 1.3240788410182668944 1.2993731770899390465 1.2993636428559314222 1.3240726608783577323 1.2643234574619564015 0.70328344943741316619 0.69898165330404582463 1.2738172520099975138 1.3356291115844569628 1.3105861245475232124 1.3105833672540956325 1.3356074799108945683 1.273809050875230664 0.69898776827168007664 0.68135197437759087435 1.2826056311973557111 1.3563079049364952233 1.3339005210359957676 1.3338862011285761433 1.3562927554473160896 1.2826030077406638252 0.68135315899547199692 0.66423820637489161545 1.289134476322239875 1.3786456736691918845 1.360177656649457445 1.3601767904366843798 1.3786288379074858046 1.2891371586194830812 0.66422882951081807512 0.65035795060682743962 1.2932080035979833799 1.398686946424125388 1.3844581529823130062 1.3844616904993327644 1.398666431237074903 1.2932048669310272082 0.65035157268101051464 0.63960018038715726885 1.2952699014560353774 1.415819219185599831 1.4061536295320495871 1.4061483559724599068 1.4157980256304529831 1.2952649020312698713 0.63960578561593106617 0.62917994606790994538 1.2923117909721044683 1.4258533596371349983 1.4205625121774441144 1.4205702727535587382 1.4258240896553449062 1.2923151713149716446 0.62919283357323652073 0.62949382914714546722 1.2959335945446766036 1.4383366616343664646 1.4381709258366899284 1.4381485990453433121 1.4383141857373915595 1.2959511918648765061 0.62949540926610247915 0.69000955656321238951 1.2448808990367272731 1.2993731770846101981 1.2715645366608543387 1.2715765071590185986 1.2993636428594619314 1.2448770122617542899 0.69002345108548035491 0.68564831837106221535 1.2539180758435188867 1.3105861245639989221 1.2823901168625406743 1.2823887894730086057 1.3105833672431583814 1.253909977273018006 0.68566713372041088181 0.67045557910959541204 1.2647352787631978011 1.3339005210351901898 1.308603231271566969 1.308608479938263125 1.3338862011290593124 1.2647456930703468991 0.67044799287573153546 0.65694717779188616102 1.274592517722394458 1.3601776566447814076 1.3392886824787977318 1.3392749263040240049 1.3601767904398869291 1.274601918505860132 0.65688683429610439379 0.64690128004768143732 1.2825782687876361443 1.3844581529836279543 1.368277334529675926 1.3682644308426150648 1.3844616904982511851 1.2825805573023889572 0.64685839798570976544 0.64000002226226893054 1.2891897368079852093 1.4061536295327330404 1.3949563730349177071 1.394961490212944577 1.4061483559721119629 1.2891875570902762149 0.64000180191613786906 0.63281437706959309253 1.2908723019585817138 1.4205625121742950778 1.414084998957539252 1.4140755377528539949 1.4205702727556395182 1.2908688265398644557 0.63285922203456745905 0.63527335615276214753 1.3002094574807776528 1.4381709258514820959 1.4368516352245102041 1.4368732280015008573 1.4381485990356011051 1.3002532109066555766 0.63525339529654067938 0.69002345109161422609 1.2448770122556345186 1.2993636428665900073 1.2715765071525253482 1.2715645366651651127 1.2993731770827645633 1.2448808990370088257 0.69000955656406381955 0.68566713371308218861 1.2539099772902642105 1.3105833672224760367 1.2823887894911925045 1.2823901168504308057 1.3105861245684780059 1.2539180758445225283 0.68564831837012885085 0.67044799288008771754 1.264745693069664334 1.3338862011292529353 1.3086084799384063437 1.308603231271318279 1.3339005210355872055 1.2647352787626877646 0.67045557911048492272 0.6568868342927517423 1.2746019185014554331 1.3601767904462740422 1.3392749262978953517 1.3392886824829814962 1.3601776566427856707 1.2745925177231258729 0.65694717779163203097 0.64685839799000699468 1.282580557303866442 1.3844616904968514159 1.3682644308444138481 1.3682773345282748245 1.3844581529842545642 1.2825782687876741139 0.64690128004748292945 0.64000180191142308495 1.289187557092441816 1.4061483559697049994 1.394961490214955635 1.3949563730337237732 1.406153629533756888 1.2891897368071685293 0.64000002226214258716 0.63285922203825673016 1.2908688265358478908 1.420570272761313646 1.4140755377478939625 1.4140849989609178827 1.4205625121724394511 1.2908723019596772819 0.63281437706930632192 0.63525339528838820069 1.3002532109249915759 1.4381485990131008812 1.4368732280218998731 1.4368516352109508283 1.4381709258583423861 1.3002094574780589387 0.63527335615271773861 0.70328344942842380139 1.2643234574717197027 1.3240726608651314233 1.2993636428701094143 1.2993731770774876733 1.3240788410271473463 1.264338399057060025 0.70327844645426040859 0.69898776828339514999 1.2738090508463244532 1.3356074799505346373 1.3105833672115274613 1.3105861245850036756 1.3356291115580902762 1.2738172520240824692 0.69898165329936978729 0.68135315898865156381 1.2826030077423586917 1.356292755445461129 1.3338862011297252241 1.3339005210348273689 1.3563079049375006413 1.2826056311970606139 0.68135197438043015872 0.66422882951676942564 1.2891371586270803373 1.3786288378955646738 1.3601767904494665995 1.3601776566381507116 1.3786456736774419518 1.2891344763179148902 0.66423820637250796661 0.65035157267331589193 1.2932048669288549458 1.3986664312390522102 1.3844616904957611769 1.3844581529856061497 1.3986869464225886173 1.2932080035991599942 0.65035795061037082743 0.63960578562368242128 1.295264902027638998 1.4157980256340889635 1.4061483559693490619 1.4061536295344740921 1.4158192191834837459 1.2952699014584523329 0.6396001803834429067 0.6291928335672731798 1.2923151713219087622 1.4258240896451652713 1.4205702727633870985 1.4205625121693199464 1.4258533596439622038 1.2923117909679386894 0.62917994607099647641 0.62949540927999814155 1.2959511918330939295 1.4383141857780505912 1.4381485990033520128 1.4381709258731609768 1.4383366616072195132 1.2959335945627215025 0.62949382914031259961 0.67849711841333171236 1.2034673092851544407 1.2643234574734809605 1.2448770122509893454 1.2448808990439306221 1.2643383990544396767 1.2034771266456165684 0.67850129636444189707 0.6726926549654708154 1.2112574592795406492 1.2738090508401500589 1.2539099773048252295 1.2539180758224752754 1.2738172520333124194 1.2112662420345920999 0.67269719395357507885 0.64824477909472366655 1.2101576984227360168 1.2826030077430325971 1.2647456930684626286 1.2647352787644574601 1.2826056311959141976 1.2101668558617566518 0.64825365429289905084 0.62287593978581845544 1.2030152124222495136 1.2891371586283575379 1.2746019184981050021 1.274592517727865415 1.2891344763160890174 1.2030278269936143243 0.62289028448749228506 0.60114186783454659491 1.192709506766017169 1.2932048669281743791 1.2825805573055515385 1.2825782687853750641 1.2932080036000608292 1.1927154515150923952 0.60115289310787667354 0.58352986721434030315 1.1807217017968520967 1.2952649020279021208 1.289187557092666303 1.2891897368065732277 1.2952699014580686399 1.1807263712798818922 0.58353424374257389928 0.56776486681117355193 1.1654308802190853633 1.2923151713223801629 1.2908688265339991474 1.2908723019623726813 1.2923117909671526515 1.1654521699842914639 0.5677677074976836824 0.566985240242280919 1.1606338964995308594 1.2959511918291797272 1.3002532109364504098 1.3002094574607108157 1.2959335945685190872 1.1606498490402703538 0.56698667093051680066 0.4071963584938423919 0.67849711841382498445 0.70328344942597253997 0.69002345109659768418 0.69000955655612883355 0.7032784464576863348 0.67850129636365874575 0.40720311475002018975 0.39397989583153530946 0.67269265496467345322 0.69898776828699937802 0.68566713370603216138 0.68564831838069784098 0.69898165329385708588 0.67269719395473648316 0.39398383079518461969 0.36321522026914798698 0.64824477909511046825 0.68135315898645942845 0.67044799288427181505 0.67045557910405428892 0.68135197438359518252 0.6482536542922636702 0.3632172933802221837 0.33845758798201075468 0.62287593978555755303 0.66422882951849837596 0.65688683428917460372 0.65694717779670075419 0.66423820636978325727 0.622890284487845447 0.33845898583407119098 0.32069505926631264314 0.60114186783476941667 0.65035157267163290484 0.64685839799389921456 0.64690128004197289258 0.65035795061293966146 0.60115289310752229035 0.32069858196945882911 0.30780876229493020491 0.58352986721402255732 0.63960578562542058645 0.64000180190767130828 0.64000002226780816628 0.63960018038077492974 0.58353424374303985989 0.30781447941693207415 0.29656220530357280118 0.56776486681135962531 0.62919283356622324188 0.63285922204074751551 0.63281437706547749578 0.62917994607252458739 0.56776770749740079758 0.29656837218148285329 0.29681152495895546384 0.56698524024140484201 0.62949540928303493459 0.63525339528203839112 0.63527335616233948645 0.62949382913578477705 0.5669866709317993303 0.29681559584186817391 
        </DataArray>
      </CellData>
      <Points>
        <DataArray Name="m" NumberOfComponents="3" type="Float32" format="ascii">
0 0 0 0.125 0 0 0.25 0 0 0.375 0 0 0.5 0 0 0.625 0 0 0.75 0 0 0.875 0 0 1 0 0 0 0.125 0 0.125 0.125 0 0.25 0.125 0 0.375 0.125 0 0.5 0.125 0 0.625 0.125 0 0.75 0.125 0 0.875 0.125 0 1 0.125 0 0 0.25 0 0.125 0.25 0 0.25 0.25 0 0.375 0.25 0 0.5 0.25 0 0.625 0.25 0 0.75 0.25 0 0.875 0.25 0 1 0.25 0 0 0.375 0 0.125 0.375 0 0.25 0.375 0 0.375 0.375 0 0.5 0.375 0 0.625 0.375 0 0.75 0.375 0 0.875 0.375 0 1 0.375 0 0 0.5 0 0.125 0.5 0 0.25 0.5 0 0.375 0.5 0 0.5 0.5 0 0.625 0.5 0 0.75 0.5 0 0.875 0.5 0 1 0.5 0 0 0.625 0 0.125 0.625 0 0.25 0.625 0 0.375 0.625 0 0.5 0.625 0 0.625 0.625 0 0.75 0.625 0 0.875 0.625 0 1 0.625 0 0 0.75 0 0.125 0.75 0 0.25 0.75 0 0.375 0.75 0 0.5 0.75 0 0.625 0.75 0 0.75 0.75 0 0.875 0.75 0 1 0.75 0 0 0.875 0 0.125 0.875 0 0.25 0.875 0 0.375 0.875 0 0.5 0.875 0 0.625 0.875 0 0.75 0.875 0 0.875 0.875 0 1 0.875 0 0 1 0 0.125 1 0 0.25 1 0 0.375 1 0 0.5 1 0 0.625 1 0 0.75 1 0 0.875 1 0 1 1 0 0 0 0.125 0.125 0 0.125 0.25 0 0.125 0.375 0 0.125 0.5 0 0.125 0.625 0 0.125 0.75 0 0.125 0.875 0 0.125 1 0 0.125 0 0.125 0.125 0.125 0.125 0.125 0.25 0.125 0.125 0.375 0.125 0.125 0.5 0.125 0.125 0.625 0.125 0.125 0.75 0.125 0.125 0.875 0.125 0.125 1 0.125 0.125 0 0.25 0.125 0.125 0.25 0.125 0.25 0.25 0.125 0.375 0.25 0.125 0.5 0.25 0.125 0.625 0.25 0.125 0.75 0.25 0.125 0.875 0.25 0.125 1 0.25 0.125 0 0.375 0.125 0.125 0.375 0.125 0.25 0.375 0.125 0.375 0.375 0.125 0.5 0.375 0.125 0.625 0.375 0.125 0.75 0.375 0.125 0.875 0.375 0.125 1 0.375 0.125 0 0.5 0.125 0.125 0.5 0.125 0.25 0.5 0.125 0.375 0.5 0.125 0.5 0.5 0.125 0.625 0.5 0.125 0.75 0.5 0.125 0.875 0.5 0.125 1 0.5 0.125 0 0.625 0.125 0.125 0.625 0.125 0.25 0.625 0.125 0.375 0.625 0.125 0.5 0.625 0.125 0.625 0.625 0.125 0.75 0.625 0.125 0.875 0.625 0.125 1 0.625 0.125 0 0.75 0.125 0.125 0.75 0.125 0.25 0.75 0.125 0.375 0.75 0.125 0.5 0.75 0.125 0.625 0.75 0.125 0.75 0.75 0.125 0.875 0.75 0.125 1 0.75 0.125 0 0.875 0.125 0.125 0.875 0.125 0.25 0.875 0.125 0.375 0.875 0.125 0.5 0.875 0.125 0.625 0.875 0.125 0.75 0.875 0.125 0.875 0.875 0.125 1 0.875 0.125 0 1 0.125 0.125 1 0.125 0.25 1 0.125 0.375 1 0.125 0.5 1 0.125 0.625 1 0.125 0.75 1 0.125 0.875 1 0.125 1 1 0.125 0 0 0.25 0.125 0 0.25 0.25 0 0.25 0.375 0 0.25 0.5 0 0.25 0.625 0 0.25 0.75 0 0.25 0.875 0 0.25 1 0 0.25 0 0.125 0.25 0.125 0.125 0.25 0.25 0.125 0.25 0.375 0.125 0.25 0.5 0.125 0.25 0.625 0.125 0.25 0.75 0.125 0.25 0.875 0.125 0.25 1 0.125 0.25 0 0.25 0.25 0.125 0.25 0.25 0.25 0.25 0.25 0.375 0.25 0.25 0.5 0.25 0.25 0.625 0.25 0.25 0.75 0.25 0.25 0.875 0.25 0.25 1 0.25 0.25 0 0.375 0.25 0.125 0.375 0.25 0.25 0.375 0.25 0.375 0.375 0.25 0.5 0.375 0.25 0.625 0.375 0.25 0.75 0.375 0.25 0.875 0.375 0.25 1 0.375 0.25 0 0.5 0.25 0.125 0.5 0.25 0.25 0.5 0.25 0.375 0.5 0.25 0.5 0.5 0.25 0.625 0.5 0.25 0.75 0.5 0.25 0.875 0.5 0.25 1 0.5 0.25 0 0.625 0.25 0.125 0.625 0.25 0.25 0.625 0.25 0.375 0.625 0.25 0.5 0.625 0.25 0.625 0.625 0.25 0.75 0.625 0.25 0.875 0.625 0.25 1 0.625 0.25 0 0.75 0.25 0.125 0.75 0.25 0.25 0.75 0.25 0.375 0.75 0.25 0.5 0.75 0.25 0.625 0.75 0.25 0.75 0.75 0.25 0.875 0.75 0.25 1 0.75 0.25 0 0.875 0.25 0.125 0.875 0.25 0.25 0.875 0.25 0.375 0.875 0.25 0.5 0.875 0.25 0.625 0.875 0.25 0.75 0.875 0.25 0.875 0.875 0.25 1 0.875 0.25 0 1 0.25 0.125 1 0.25 0.25 1 0.25 0.375 1 0.25 0.5 1 0.25 0.625 1 0.25 0.75 1 0.25 0.875 1 0.25 1 1 0.25 0 0 0.375 0.125 0 0.375 0.25 0 0.375 0.375 0 0.375 0.5 0 0.375 0.625 0 0.375 0.75 0 0.375 0.875 0 0.375 1 0 0.375 0 0.125 0.375 0.125 0.125 0.375 0.25 0.125 0.375 0.375 0.125 0.375 0.5 0.125 0.375 0.625 0.125 0.375 0.75 0.125 0.375 0.875 0.125 0.375 1 0.125 0.375 0 0.25 0.375 0.125 0.25 0.375 0.25 0.25 0.375 0.375 0.25 0.375 0.5 0.25 0.375 0.625 0.25 0.375 0.75 0.25 0.375 0.875 0.25 0.375 1 0.25 0.375 0 0.375 0.375 0.125 0.375 0.375 0.25 0.375 0.375 0.375 0.375 0.375 0.5 0.375 0.375 0.625 0.375 0.375 0.75 0.375 0.375 0.875 0.375 0.375 1 0.375 0.375 0 0.5 0.375 0.125 0.5 0.375 0.25 0.5 0.375 0.375 0.5 0.375 0.5 0.5 0.375 0.625 0.5 0.375 0.75 0.5 0.375 0.875 0.5 0.375 1 0.5 0.375 0 0.625 0.375 0.125 0.625 0.375 0.25 0.625 0.375 0.375 0.625 0.375 0.5 0.625 0.375 0.625 0.625 0.375 0.75 0.625 0.375 0.875 0.625 0.375 1 0.625 0.375 0 0.75 0.375 0.125 0.75 0.375 0.25 0.75 0.375 0.375 0.75 0.375 0.5 0.75 0.375 0.625 0.75 0.375 0.75 0.75 0.375 0.875 0.75 0.375 1 0.75 0.375 0 0.875 0.375 0.125 0.875 0.375 0.25 0.875 0.375 0.375 0.875 0.375 0.5 0.875 0.375 0.625 0.875 0.375 0.75 0.875 0.375 0.875 0.875 0.375 1 0.875 0.375 0 1 0.375 0.125 1 0.375 0.25 1 0.375 0.375 1 0.375 0.5 1 0.375 0.625 1 0.375 0.75 1 0.375 0.875 1 0.375 1 1 0.375 0 0 0.5 0.125 0 0.5 0.25 0 0.5 0.375 0 0.5 0.5 0 0.5 0.625 0 0.5 0.75 0 0.5 0.875 0 0.5 1 0 0.5 0 0.125 0.5 0.125 0.125 0.5 0.25 0.125 0.5 0.375 0.125 0.5 0.5 0.125 0.5 0.625 0.125 0.5 0.75 0.125 0.5 0.875 0.125 0.5 1 0.125 0.5 0 0.25 0.5 0.125 0.25 0.5 0.25 0.25 0.5 0.375 0.25 0.5 0.5 0.25 0.5 0.625 0.25 0.5 0.75 0.25 0.5 0.875 0.25 0.5 1 0.25 0.5 0 0.375 0.5 0.125 0.375 0.5 0.25 0.375 0.5 0.375 0.375 0.5 0.5 0.375 0.5 0.625 0.375 0.5 0.75 0.375 0.5 0.875 0.375 0.5 1 0.375 0.5 0 0.5 0.5 0.125 0.5 0.5 0.25 0.5 0.5 0.375 0.5 0.5 0.5 0.5 0.5 0.625 0.5 0.5 0.75 0.5 0.5 0.875 0.5 0.5 1 0.5 0.5 0 0.625 0.5 0.125 0.625 0.5 0.25 0.625 0.5 0.375 0.625 0.5 0.5 0.625 0.5 0.625 0.625 0.5 0.75 0.625 0.5 0.875 0.625 0.5 1 0.625 0.5 0 0.75 0.5 0.125 0.75 0.5 0.25 0.75 0.5 0.375 0.75 0.5 0.5 0.75 0.5 0.625 0.75 0.5 0.75 0.75 0.5 0.875 0.75 0.5 1 0.75 0.5 0 0.875 0.5 0.125 0.875 0.5 0.25 0.875 0.5 0.375 0.875 0.5 0.5 0.875 0.5 0.625 0.875 0.5 0.75 0.875 0.5 0.875 0.875 0.5 1 0.875 0.5 0 1 0.5 0.125 1 0.5 0.25 1 0.5 0.375 1 0.5 0.5 1 0.5 0.625 1 0.5 0.75 1 0.5 0.875 1 0.5 1 1 0.5 0 0 0.625 0.125 0 0.625 0.25 0 0.625 0.375 0 0.625 0.5 0 0.625 0.625 0 0.625 0.75 0 0.625 0.875 0 0.625 1 0 0.625 0 0.125 0.625 0.125 0.125 0.625 0.25 0.125 0.625 0.375 0.125 0.625 0.5 0.125 0.625 0.625 0.125 0.625 0.75 0.125 0.625 0.875 0.125 0.625 1 0.125 0.625 0 0.25 0.625 0.125 0.25 0.625 0.25 0.25 0.625 0.375 0.25 0.625 0.5 0.25 0.625 0.625 0.25 0.625 0.75 0.25 0.625 0.875 0.25 0.625 1 0.25 0.625 0 0.375 0.625 0.125 0.375 0.625 0.25 0.375 0.625 0.375 0.375 0.625 0.5 0.375 0.625 0.625 0.375 0.625 0.75 0.375 0.625 0.875 0.375 0.625 1 0.375 0.625 0 0.5 0.625 0.125 0.5 0.625 0.25 0.5 0.625 0.375 0.5 0.625 0.5 0.5 0.625 0.625 0.5 0.625 0.75 0.5 0.625 0.875 0.5 0.625 1 0.5 0.625 0 0.625 0.625 0.125 0.625 0.625 0.25 0.625 0.625 0.375 0.625 0.625 0.5 0.625 0.625 0.625 0.625 0.625 0.75 0.625 0.625 0.875 0.625 0.625 1 0.625 0.625 0 0.75 0.625 0.125 0.75 0.625 0.25 0.75 0.625 0.375 0.75 0.625 0.5 0.75 0.625 0.625 0.75 0.625 0.75 0.75 0.625 0.875 0.75 0.625 1 0.75 0.625 0 0.875 0.625 0.125 0.875 0.625 0.25 0.875 0.625 0.375 0.875 0.625 0.5 0.875 0.625 0.625 0.875 0.625 0.75 0.875 0.625 0.875 0.875 0.625 1 0.875 0.625 0 1 0.625 0.125 1 0.625 0.25 1 0.625 0.375 1 0.625 0.5 1 0.625 0.625 1 0.625 0.75 1 0.625 0.875 1 0.625 1 1 0.625 0 0 0.75 0.125 0 0.75 0.25 0 0.75 0.375 0 0.75 0.5 0 0.75 0.625 0 0.75 0.75 0 0.75 0.875 0 0.75 1 0 0.75 0 0.125 0.75 0.125 0.125 0.75 0.25 0.125 0.75 0.375 0.125 0.75 0.5 0.125 0.75 0.625 0.125 0.75 0.75 0.125 0.75 0.875 0.125 0.75 1 0.125 0.75 0 0.25 0.75 0.125 0.25 0.75 0.25 0.25 0.75 0.375 0.25 0.75 0.5 0.25 0.75 0.625 0.25 0.75 0.75 0.25 0.75 0.875 0.25 0.75 1 0.25 0.75 0 0.375 0.75 0.125 0.375 0.75 0.25 0.375 0.75 0.375 0.375 0.75 0.5 0.375 0.75 0.625 0.375 0.75 0.75 0.375 0.75 0.875 0.375 0.75 1 0.375 0.75 0 0.5 0.75 0.125 0.5 0.75 0.25 0.5 0.75 0.375 0.5 0.75 0.5 0.5 0.75 0.625 0.5 0.75 0.75 0.5 0.75 0.875 0.5 0.75 1 0.5 0.75 0 0.625 0.75 0.125 0.625 0.75 0.25 0.625 0.75 0.375 0.625 0.75 0.5 0.625 0.75 0.625 0.625 0.75 0.75 0.625 0.75 0.875 0.625 0.75 1 0.625 0.75 0 0.75 0.75 0.125 0.75 0.75 0.25 0.75 0.75 0.375 0.75 0.75 0.5 0.75 0.75 0.625 0.75 0.75 0.75 0.75 0.75 0.875 0.75 0.75 1 0.75 0.75 0 0.875 0.75 0.125 0.875 0.75 0.25 0.875 0.75 0.375 0.875 0.75 0.5 0.875 0.75 0.625 0.875 0.75 0.75 0.875 0.75 0.875 0.875 0.75 1 0.875 0.75 0 1 0.75 0.125 1 0.75 0.25 1 0.75 0.375 1 0.75 0.5 1 0.75 0.625 1 0.75 0.75 1 0.75 0.875 1 0.75 1 1 0.75 0 0 0.875 0.125 0 0.875 0.25 0 0.875 0.375 0 0.875 0.5 0 0.875 0.625 0 0.875 0.75 0 0.875 0.875 0 0.875 1 0 0.875 0 0.125 0.875 0.125 0.125 0.875 0.25 0.125 0.875 0.375 0.125 0.875 0.5 0.125 0.875 0.625 0.125 0.875 0.75 0.125 0.875 0.875 0.125 0.875 1 0.125 0.875 0 0.25 0.875 0.125 0.25 0.875 0.25 0.25 0.875 0.375 0.25 0.875 0.5 0.25 0.875 0.625 0.25 0.875 0.75 0.25 0.875 0.875 0.25 0.875 1 0.25 0.875 0 0.375 0.875 0.125 0.375 0.875 0.25 0.375 0.875 0.375 0.375 0.875 0.5 0.375 0.875 0.625 0.375 0.875 0.75 0.375 0.875 0.875 0.375 0.875 1 0.375 0.875 0 0.5 0.875 0.125 0.5 0.875 0.25 0.5 0.875 0.375 0.5 0.875 0.5 0.5 0.875 0.625 0.5 0.875 0.75 0.5 0.875 0.875 0.5 0.875 1 0.5 0.875 0 0.625 0.875 0.125 0.625 0.875 0.25 0.625 0.875 0.375 0.625 0.875 0.5 0.625 0.875 0.625 0.625 0.875 0.75 0.625 0.875 0.875 0.625 0.875 1 0.625 0.875 0 0.75 0.875 0.125 0.75 0.875 0.25 0.75 0.875 0.375 0.75 0.875 0.5 0.75 0.875 0.625 0.75 0.875 0.75 0.75 0.875 0.875 0.75 0.875 1 0.75 0.875 0 0.875 0.875 0.125 0.875 0.875 0.25 0.875 0.875 0.375 0.875 0.875 0.5 0.875 0.875 0.625 0.875 0.875 0.75 0.875 0.875 0.875 0.875 0.875 1 0.875 0.875 0 1 0.875 0.125 1 0.875 0.25 1 0.875 0.375 1 0.875 0.5 1 0.875 0.625 1 0.875 0.75 1 0.875 0.875 1 0.875 1 1 0.875 0 0 1 0.125 0 1 0.25 0 1 0.375 0 1 0.5 0 1 0.625 0 1 0.75 0 1 0.875 0 1 1 0 1 0 0.125 1 0.125 0.125 1 0.25 0.125 1 0.375 0.125 1 0.5 0.125 1 0.625 0.125 1 0.75 0.125 1 0.875 0.125 1 1 0.125 1 0 0.25 1 0.125 0.25 1 0.25 0.25 1 0.375 0.25 1 0.5 0.25 1 0.625 0.25 1 0.75 0.25 1 0.875 0.25 1 1 0.25 1 0 0.375 1 0.125 0.375 1 0.25 0.375 1 0.375 0.375 1 0.5 0.375 1 0.625 0.375 1 0.75 0.375 1 0.875 0.375 1 1 0.375 1 0 0.5 1 0.125 0.5 1 0.25 0.5 1 0.375 0.5 1 0.5 0.5 1 0.625 0.5 1 0.75 0.5 1 0.875 0.5 1 1 0.5 1 0 0.625 1 0.125 0.625 1 0.25 0.625 1 0.375 0.625 1 0.5 0.625 1 0.625 0.625 1 0.75 0.625 1 0.875 0.625 1 1 0.625 1 0 0.75 1 0.125 0.75 1 0.25 0.75 1 0.375 0.75 1 0.5 0.75 1 0.625 0.75 1 0.75 0.75 1 0.875 0.75 1 1 0.75 1 0 0.875 1 0.125 0.875 1 0.25 0.875 1 0.375 0.875 1 0.5 0.875 1 0.625 0.875 1 0.75 0.875 1 0.875 0.875 1 1 0.875 1 0 1 1 0.125 1 1 0.25 1 1 0.375 1 1 0.5 1 1 0.625 1 1 0.75 1 1 0.875 1 1 1 1 1         </DataArray>
      </Points>
    </Piece>
  </StructuredGrid>
</VTKFile>
