# vtk DataFile Version 2.0
Interface from PLIC
ASCII
DATASET POLYDATA
POINTS 138 float
0.4526206799020052 0 0
0.4349845182640542 0.125 0
0.4150189347462994 0.125 0.125
0.4326550963842504 0 0.125
0.375 0.25 0.03577722458226762
0.375 0.2160387234234114 0.125
0.3592254065879728 0.25 0.125
0.4164194522505488 0.125 0.125
0.375 0.2142477133864191 0.125
0.375 0.25 0.03115122006382678
0.3805075380528657 0.25 0
0.4385194616626246 0.125 0
0.25 0.375 0.07286712087796046
0.2323562738548954 0.375 0.125
0.25 0.3650050621499808 0.125
0.2741979600264315 0.375 0
0.375 0.2683324020432228 0
0.375 0.25 0.07095057421110906
0.3618025097816849 0.25 0.125
0.25 0.3683081728016465 0.125
0.25 0.375 0.09910110354740881
0.375 0.25 0.03849614859027542
0.375 0.2594179071606686 0
0.3813077405363594 0.25 0
0.125 0.4314065588137609 0.125
0 0.4514679206919646 0.125
0 0.4722365741438963 0
0.125 0.4521752122656926 0
0.125 0.4332737202577042 0.125
0.2340842117444233 0.375 0.125
0.25 0.375 0.0801430329988365
0.25 0.3901905979172761 0
0.125 0.4569666685853158 0
0.25 0.375 0.1043404388919762
0.2741880486378935 0.375 0
0.25 0.3934936974771917 0
0.3715226984079347 0 0.25
0.375 0 0.2434919098514302
0.375 0.125 0.206489434643695
0.3517521108756627 0.125 0.25
0.4166692066631509 0.125 0.125
0.375 0.125 0.2042563335720538
0.375 0 0.2418607039417668
0.4364397941954229 0 0.125
0.3515589284873397 0.125 0.25
0.375 0.125 0.2124338421858256
0.375 0.2243887848877546 0.125
0.3609410447870641 0.25 0.125
0.2829417467599195 0.25 0.25
0.375 0.2126644348102684 0.125
0.375 0.125 0.2054580727474378
0.4169301650572591 0.125 0.125
0.05996750966131111 0.375 0.25
0.125 0.375 0.2295264880672239
0.125 0.3629874615279861 0.25
0.125 0.3663218186085108 0.25
0.125 0.375 0.236765680387944
0.2396720085023344 0.375 0.125
0.25 0.3683992387669531 0.125
0.25 0.2864326015891745 0.25
0.2823078374260652 0.25 0.25
0.25 0.2844993515975505 0.25
0.25 0.3690547855698314 0.125
0.3614920274982288 0.25 0.125
0.125 0.4332608115054886 0.125
0.125 0.375 0.2307787636201738
0.06742784862771839 0.375 0.25
0 0.3873989870736765 0.25
0 0.4562464682593723 0.125
0.2318988150948973 0.375 0.125
0.125 0.375 0.2301593213220951
0.125 0.4331406705045043 0.125
0.25 0.375 0.128061760838133
0.2520579741513101 0.375 0.125
0.25 0.376603352510441 0.125
0.25 0 0.369024133175794
0.2382910275165928 0 0.375
0.2007268038511126 0.125 0.375
0.25 0.125 0.3498526133607371
0.25 0.125 0.3488672395782786
0.3509610384860584 0.125 0.25
0.375 0.02055116422373544 0.25
0.375 0 0.2546317715184025
0.2520826271668339 0 0.375
0.25 0.009048975880495649 0.375
0.375 0.01852116172620624 0.25
0.375 0 0.2538579621895344
0.3778178698310257 0 0.25
0.001827508944098097 0.25 0.375
0.125 0.2050684725745236 0.375
0.125 0.25 0.3543694119927084
0.25 0.125 0.3495157286185913
0.2073449299328324 0.125 0.375
0.125 0.2164666853482403 0.375
0.125 0.25 0.3569635123430069
0.25 0.25 0.2822822630176646
0.25 0.25 0.2791173825311272
0.279578329279531 0.25 0.25
0.3503496858776997 0.125 0.25
0.25 0.125 0.3487858429381094
0 0.375 0.2700015794318461
0 0.2623415011992667 0.375
0.04976640757781341 0.25 0.375
0.125 0.25 0.3576114926157049
0.125 0.3654622054902464 0.25
0.08653938153050379 0.375 0.25
0.25 0.25 0.2768203111803553
0.25 0.2804814866584517 0.25
0.125 0.3737401774119965 0.25
0.125 0.25 0.3588775656151244
0.25 0.2766214707568744 0.25
0.2749208366573611 0.25 0.25
0.25 0.25 0.2746069832009921
0.09624816515838863 0.375 0.25
0 0.375 0.2712577554207813
0 0.3915248576537858 0.25
0 0 0.446559903158566
0 0.125 0.429273148470886
0.125 0.125 0.4102212297754032
0.125 0 0.4275079844630832
0.125 0.125 0.4119446700819505
0.1982965161415244 0.125 0.375
0.2363319244552232 0 0.375
0.125 0 0.4311161898970074
0.25 0.001372488828759504 0.375
0.2502882848289136 0 0.375
0.25 0 0.375203437482962
0.125 0.125 0.4120695390364158
0.125 0.2058542220885246 0.375
0.00416137494518444 0.25 0.375
0 0.25 0.3756970031319656
0 0.125 0.4330062228592756
0.125 0.2080559737689904 0.375
0.2022697496885278 0.125 0.375
0.125 0.125 0.4138065170412401
0.02507556024536434 0.25 0.375
0 0.2559083372740359 0.375
0 0.25 0.378901058769046
POLYGONS 35 173
4 0 1 2 3
3 4 5 6
5 7 8 9 10 11
3 12 13 14
6 15 16 17 18 19 20
3 21 22 23
4 24 25 26 27
5 28 29 30 31 32
3 33 34 35
4 36 37 38 39
4 40 41 42 43
5 44 45 46 47 48
3 49 50 51
3 52 53 54
5 55 56 57 58 59
4 60 61 62 63
5 64 65 66 67 68
3 69 70 71
3 72 73 74
4 75 76 77 78
6 79 80 81 82 83 84
3 85 86 87
3 88 89 90
5 91 92 93 94 95
4 96 97 98 99
6 100 101 102 103 104 105
4 106 107 108 109
3 110 111 112
3 113 114 115
4 116 117 118 119
4 120 121 122 123
3 124 125 126
5 127 128 129 130 131
3 132 133 134
3 135 136 137
CELL_DATA 35
SCALARS cl float
LOOKUP_TABLE default
0
0
0
0
0
0
0
0
0
0
0
0
0
0
0
0
0
0
0
0
0
0
0
0
0
0
0
0
0
0
0
0
0
0
0
