# vtk DataFile Version 2.0
Reconstructed linear interface
ASCII
DATASET POLYDATA
POINTS 447 float
0.3459202286953101 -0.125 -0.25
0.375 -0.125 -0.2030592440564299
0.375 -0.2167402579371209 -0.125
0.3574682944242437 -0.25 -0.125
0.2800308663296466 -0.25 -0.25
0.375 -0.2101283498758549 -0.125
0.375 -0.125 -0.2004346122423245
0.4137059339082816 -0.125 -0.125
0.3668480008607067 0 -0.25
0.375 0 -0.2342895972733845
0.375 -0.125 -0.1976060557721097
0.3478132120046578 -0.125 -0.25
0.4107623524220083 -0.125 -0.125
0.375 -0.125 -0.1953091222819925
0.375 0 -0.2327316967675638
0.4297971412780572 0 -0.125
0.3668480008607067 0 -0.25
0.375 0 -0.2342895972733845
0.375 0.125 -0.1976060557721097
0.3478132120046578 0.125 -0.25
0.4107623524220083 0.125 -0.125
0.375 0.125 -0.1953091222819925
0.375 0 -0.2327316967675638
0.4297971412780572 0 -0.125
0.3459202286953101 0.125 -0.25
0.375 0.125 -0.2030592440564299
0.375 0.2167402579371209 -0.125
0.3574682944242437 0.25 -0.125
0.2800308663296466 0.25 -0.25
0.375 0.2101283498758549 -0.125
0.375 0.125 -0.2004346122423245
0.4137059339082816 0.125 -0.125
-0.25 0.3664342094531406 -0.125
-0.2368391037637876 0.375 -0.125
-0.125 0.375 -0.23745032122071
-0.125 0.3668764179141218 -0.25
-0.25 0.2855199662606769 -0.25
-0.06014633743135055 0.375 -0.25
-0.125 0.375 -0.2276914029097435
-0.125 0.3621300070624353 -0.25
0.06014633743135055 0.375 -0.25
0.125 0.375 -0.2276914029097435
0.125 0.3621300070624353 -0.25
0.25 0.3664342094531406 -0.125
0.2368391037637876 0.375 -0.125
0.125 0.375 -0.23745032122071
0.125 0.3668764179141218 -0.25
0.25 0.2855199662606769 -0.25
0.2833739408082768 0.25 -0.25
0.25 0.2860503387328147 -0.25
0.25 0.3709747432350776 -0.125
0.3619935085755224 0.25 -0.125
-0.125 0.375 -0.2313747808035986
-0.2309959971703929 0.375 -0.125
-0.125 0.4325402761078473 -0.125
-0.125 0.4333980541678384 -0.125
-0.125 0.375 -0.2314683689958315
-0.07088042163716197 0.375 -0.25
0 0.3883126130094481 -0.25
0 0.4568752935485442 -0.125
0.125 0.4333980541678384 -0.125
0.125 0.375 -0.2314683689958315
0.07088042163716197 0.375 -0.25
0 0.3883126130094481 -0.25
0 0.4568752935485442 -0.125
0.125 0.375 -0.2313747808035986
0.2309959971703929 0.375 -0.125
0.125 0.4325402761078473 -0.125
0.25 0.375 -0.1289465718044742
0.2526378010810913 0.375 -0.125
0.25 0.377028707787359 -0.125
0.375 -0.25 -0.03994396267587344
0.375 -0.2137537822225618 -0.125
0.3590035147440109 -0.25 -0.125
0.4133658818254265 -0.125 -0.125
0.375 -0.2121232624980854 -0.125
0.375 -0.25 -0.03631213619719784
0.3818292218820213 -0.25 0
0.4368746264119964 -0.125 0
0.4463549675598941 0 0
0.4308720249898219 -0.125 0
0.4109151266892289 -0.125 -0.125
0.426398069259301 0 -0.125
0.4463549675598941 0 0
0.4308720249898219 0.125 0
0.4109151266892289 0.125 -0.125
0.426398069259301 0 -0.125
0.375 0.25 -0.03994396267587344
0.375 0.2137537822225618 -0.125
0.3590035147440109 0.25 -0.125
0.4133658818254265 0.125 -0.125
0.375 0.2121232624980854 -0.125
0.375 0.25 -0.03631213619719784
0.3818292218820213 0.25 0
0.4368746264119964 0.125 0
-0.25 0.375 -0.0555152560910871
-0.2262833785481164 0.375 -0.125
-0.25 0.3612731941800196 -0.125
0.25 0.375 -0.0555152560910871
0.2262833785481164 0.375 -0.125
0.25 0.3612731941800196 -0.125
0.2749812297809399 0.375 0
0.375 0.269266376266405 0
0.375 0.25 -0.0742540429513972
0.3625448267198121 0.25 -0.125
0.25 0.3689753916739077 -0.125
0.25 0.375 -0.1017807127180916
0.375 0.25 -0.04842690330824036
0.375 0.2622291460506895 0
0.3830444138791557 0.25 0
-0.125 0.4332707150152276 -0.125
-0.2309694550820343 0.375 -0.125
-0.25 0.375 -0.0688917710712655
-0.25 0.3878487730895129 0
-0.125 0.4565840456382375 0
-0.125 0.4335340655560811 -0.125
-0.125 0.4563846279896858 0
0 0.4793990991809864 0
0 0.4565485367473818 -0.125
0.125 0.4335340655560811 -0.125
0.125 0.4563846279896858 0
0 0.4793990991809864 0
0 0.4565485367473818 -0.125
0.125 0.4332707150152276 -0.125
0.2309694550820343 0.375 -0.125
0.25 0.375 -0.0688917710712655
0.25 0.3878487730895129 0
0.125 0.4565840456382375 0
0.25 0.375 -0.1052455444255964
0.2743957663202605 0.375 0
0.25 0.3933522480705107 0
0.375 -0.25 0.03994396267587344
0.375 -0.2137537822225618 0.125
0.3590035147440109 -0.25 0.125
0.4133658818254265 -0.125 0.125
0.375 -0.2121232624980854 0.125
0.375 -0.25 0.03631213619719784
0.3818292218820213 -0.25 0
0.4368746264119964 -0.125 0
0.4463549675598941 0 0
0.4308720249898219 -0.125 0
0.4109151266892289 -0.125 0.125
0.426398069259301 0 0.125
0.4463549675598941 0 0
0.4308720249898219 0.125 0
0.4109151266892289 0.125 0.125
0.426398069259301 0 0.125
0.375 0.25 0.03994396267587344
0.375 0.2137537822225618 0.125
0.3590035147440109 0.25 0.125
0.4133658818254265 0.125 0.125
0.375 0.2121232624980854 0.125
0.375 0.25 0.03631213619719784
0.3818292218820213 0.25 0
0.4368746264119964 0.125 0
-0.25 0.375 0.0555152560910871
-0.2262833785481164 0.375 0.125
-0.25 0.3612731941800196 0.125
0.25 0.375 0.0555152560910871
0.2262833785481164 0.375 0.125
0.25 0.3612731941800196 0.125
0.2749812297809399 0.375 0
0.375 0.269266376266405 0
0.375 0.25 0.0742540429513972
0.3625448267198121 0.25 0.125
0.25 0.3689753916739077 0.125
0.25 0.375 0.1017807127180916
0.375 0.25 0.04842690330824036
0.375 0.2622291460506895 0
0.3830444138791557 0.25 0
-0.125 0.4332707150152276 0.125
-0.2309694550820343 0.375 0.125
-0.25 0.375 0.0688917710712655
-0.25 0.3878487730895129 0
-0.125 0.4565840456382375 0
-0.125 0.4335340655560811 0.125
-0.125 0.4563846279896858 0
0 0.4793990991809864 0
0 0.4565485367473818 0.125
0.125 0.4335340655560811 0.125
0.125 0.4563846279896858 0
0 0.4793990991809864 0
0 0.4565485367473818 0.125
0.125 0.4332707150152276 0.125
0.2309694550820343 0.375 0.125
0.25 0.375 0.0688917710712655
0.25 0.3878487730895129 0
0.125 0.4565840456382375 0
0.25 0.375 0.1052455444255964
0.2743957663202605 0.375 0
0.25 0.3933522480705107 0
0.3459202286953101 -0.125 0.25
0.375 -0.125 0.2030592440564299
0.375 -0.2167402579371209 0.125
0.3574682944242437 -0.25 0.125
0.2800308663296466 -0.25 0.25
0.375 -0.2101283498758549 0.125
0.375 -0.125 0.2004346122423245
0.4137059339082816 -0.125 0.125
0.3668480008607067 0 0.25
0.375 0 0.2342895972733845
0.375 -0.125 0.1976060557721097
0.3478132120046578 -0.125 0.25
0.4107623524220083 -0.125 0.125
0.375 -0.125 0.1953091222819925
0.375 0 0.2327316967675638
0.4297971412780572 0 0.125
0.3668480008607067 0 0.25
0.375 0 0.2342895972733845
0.375 0.125 0.1976060557721097
0.3478132120046578 0.125 0.25
0.4107623524220083 0.125 0.125
0.375 0.125 0.1953091222819925
0.375 0 0.2327316967675638
0.4297971412780572 0 0.125
0.3459202286953101 0.125 0.25
0.375 0.125 0.2030592440564299
0.375 0.2167402579371209 0.125
0.3574682944242437 0.25 0.125
0.2800308663296466 0.25 0.25
0.375 0.2101283498758549 0.125
0.375 0.125 0.2004346122423245
0.4137059339082816 0.125 0.125
-0.25 0.3664342094531406 0.125
-0.2368391037637876 0.375 0.125
-0.125 0.375 0.23745032122071
-0.125 0.3668764179141218 0.25
-0.25 0.2855199662606769 0.25
-0.06014633743135055 0.375 0.25
-0.125 0.375 0.2276914029097435
-0.125 0.3621300070624353 0.25
0.06014633743135055 0.375 0.25
0.125 0.375 0.2276914029097435
0.125 0.3621300070624353 0.25
0.25 0.3664342094531406 0.125
0.2368391037637876 0.375 0.125
0.125 0.375 0.23745032122071
0.125 0.3668764179141218 0.25
0.25 0.2855199662606769 0.25
0.2833739408082768 0.25 0.25
0.25 0.2860503387328147 0.25
0.25 0.3709747432350776 0.125
0.3619935085755224 0.25 0.125
-0.125 0.375 0.2313747808035986
-0.2309959971703929 0.375 0.125
-0.125 0.4325402761078473 0.125
-0.125 0.4333980541678384 0.125
-0.125 0.375 0.2314683689958315
-0.07088042163716197 0.375 0.25
0 0.3883126130094481 0.25
0 0.4568752935485442 0.125
0.125 0.4333980541678384 0.125
0.125 0.375 0.2314683689958315
0.07088042163716197 0.375 0.25
0 0.3883126130094481 0.25
0 0.4568752935485442 0.125
0.125 0.375 0.2313747808035986
0.2309959971703929 0.375 0.125
0.125 0.4325402761078473 0.125
0.25 0.375 0.1289465718044742
0.2526378010810913 0.375 0.125
0.25 0.377028707787359 0.125
-0.25 -0.125 0.3462911061436345
-0.20393765780103 -0.125 0.375
-0.125 -0.2182327943109102 0.375
-0.125 -0.25 0.3582364886613073
-0.25 -0.25 0.2803287757503054
-0.04332641061316583 -0.25 0.375
-0.125 -0.2152493276251188 0.375
-0.125 -0.25 0.3596283916555657
0.04332641061316583 -0.25 0.375
0.125 -0.2152493276251188 0.375
0.125 -0.25 0.3596283916555657
0.25 -0.125 0.3462911061436345
0.20393765780103 -0.125 0.375
0.125 -0.2182327943109102 0.375
0.125 -0.25 0.3582364886613073
0.25 -0.25 0.2803287757503054
0.2822426011945063 -0.25 0.25
0.25 -0.25 0.2823235612012893
0.25 -0.125 0.3513007802025053
0.3510470546986463 -0.125 0.25
-0.25 0 0.3670244575390801
-0.2347111278375364 0 0.375
-0.1984171438123858 -0.125 0.375
-0.25 -0.125 0.3480914579304358
0.25 0 0.3670244575390801
0.2347111278375364 0 0.375
0.1984171438123858 -0.125 0.375
0.25 -0.125 0.3480914579304358
0.3484687081503582 -0.125 0.25
0.25 -0.125 0.3496095428773016
0.25 -0.01318315074776692 0.375
0.2529592372195026 0 0.375
0.375 0 0.2515453023472177
0.375 -0.006805345755413521 0.25
0.375 -0.000567494634646587 0.25
0.375 0 0.2501157265933389
0.3750809588869859 0 0.25
-0.25 0 0.3670244575390801
-0.2347111278375364 0 0.375
-0.1984171438123858 0.125 0.375
-0.25 0.125 0.3480914579304358
0.25 0 0.3670244575390801
0.2347111278375364 0 0.375
0.1984171438123858 0.125 0.375
0.25 0.125 0.3480914579304358
0.3484687081503582 0.125 0.25
0.25 0.125 0.3496095428773016
0.25 0.01318315074776692 0.375
0.2529592372195026 0 0.375
0.375 0 0.2515453023472177
0.375 0.006805345755413521 0.25
0.375 0.000567494634646587 0.25
0.375 0 0.2501157265933389
0.3750809588869859 0 0.25
-0.25 0.125 0.3462911061436345
-0.20393765780103 0.125 0.375
-0.125 0.2182327943109102 0.375
-0.125 0.25 0.3582364886613073
-0.25 0.25 0.2803287757503054
-0.04332641061316583 0.25 0.375
-0.125 0.2152493276251188 0.375
-0.125 0.25 0.3596283916555657
0.04332641061316583 0.25 0.375
0.125 0.2152493276251188 0.375
0.125 0.25 0.3596283916555657
0.25 0.125 0.3462911061436345
0.20393765780103 0.125 0.375
0.125 0.2182327943109102 0.375
0.125 0.25 0.3582364886613073
0.25 0.25 0.2803287757503054
0.2822426011945063 0.25 0.25
0.25 0.25 0.2823235612012893
0.25 0.125 0.3513007802025053
0.3510470546986463 0.125 0.25
-0.25 0.25 0.2834933054403408
-0.25 0.286095470333298 0.25
-0.125 0.3712259035353792 0.25
-0.125 0.25 0.3624865856269552
0 0.375 0.2753183434884441
0 0.2697259382634476 0.375
-0.07584591649390177 0.25 0.375
-0.125 0.25 0.3628951632706457
-0.125 0.3692288812589538 0.25
-0.102810140928968 0.375 0.25
0 0.375 0.2753183434884441
0 0.2697259382634476 0.375
0.07584591649390177 0.25 0.375
0.125 0.25 0.3628951632706457
0.125 0.3692288812589538 0.25
0.102810140928968 0.375 0.25
0.25 0.25 0.2834933054403408
0.25 0.286095470333298 0.25
0.125 0.3712259035353792 0.25
0.125 0.25 0.3624865856269552
0.25 0.2833247826745832 0.25
0.25 0.25 0.2808352195845638
0.2807570289849186 0.25 0.25
-0.1289982871375077 0.375 0.25
-0.125 0.375 0.2526826402827155
-0.125 0.3770613145517991 0.25
-0.1065271109190078 0.375 0.25
0 0.375 0.2747832488636395
0 0.3936457433847345 0.25
0.1065271109190078 0.375 0.25
0 0.375 0.2747832488636395
0 0.3936457433847345 0.25
0.1289982871375077 0.375 0.25
0.125 0.375 0.2526826402827155
0.125 0.3770613145517991 0.25
-0.125 -0.2112717413898189 0.375
-0.2012254219351524 -0.125 0.375
-0.125 -0.125 0.4142761687808563
-0.125 -0.125 0.4139582905151491
-0.125 -0.2132316717363872 0.375
-0.03873957369202246 -0.25 0.375
0 -0.25 0.3822910907760362
0 -0.125 0.4374842682207895
0.125 -0.125 0.4139582905151491
0.125 -0.2132316717363872 0.375
0.03873957369202246 -0.25 0.375
0 -0.25 0.3822910907760362
0 -0.125 0.4374842682207895
0.125 -0.2112717413898189 0.375
0.2012254219351524 -0.125 0.375
0.125 -0.125 0.4142761687808563
-0.125 -0.125 0.4112412450521682
-0.19590849552265 -0.125 0.375
-0.2329522150760866 0 0.375
-0.125 0 0.4301742446608126
0 0 0.4470652483894199
0 -0.125 0.4315451846758275
-0.125 -0.125 0.4114321428652392
-0.125 0 0.4269522065788315
0 0 0.4470652483894199
0 -0.125 0.4315451846758275
0.125 -0.125 0.4114321428652392
0.125 0 0.4269522065788315
0.125 -0.125 0.4112412450521682
0.19590849552265 -0.125 0.375
0.2329522150760866 0 0.375
0.125 0 0.4301742446608126
0.25 -0.006748806731194851 0.375
0.2513700006061768 0 0.375
0.25 0 0.3759613437909172
-0.125 0.125 0.4112412450521682
-0.19590849552265 0.125 0.375
-0.2329522150760866 0 0.375
-0.125 0 0.4301742446608126
0 0 0.4470652483894199
0 0.125 0.4315451846758275
-0.125 0.125 0.4114321428652392
-0.125 0 0.4269522065788315
0 0 0.4470652483894199
0 0.125 0.4315451846758275
0.125 0.125 0.4114321428652392
0.125 0 0.4269522065788315
0.125 0.125 0.4112412450521682
0.19590849552265 0.125 0.375
0.2329522150760866 0 0.375
0.125 0 0.4301742446608126
0.25 0.006748806731194851 0.375
0.2513700006061768 0 0.375
0.25 0 0.3759613437909172
-0.125 0.2112717413898189 0.375
-0.2012254219351524 0.125 0.375
-0.125 0.125 0.4142761687808563
-0.125 0.125 0.4139582905151491
-0.125 0.2132316717363872 0.375
-0.03873957369202246 0.25 0.375
0 0.25 0.3822910907760362
0 0.125 0.4374842682207895
0.125 0.125 0.4139582905151491
0.125 0.2132316717363872 0.375
0.03873957369202246 0.25 0.375
0 0.25 0.3822910907760362
0 0.125 0.4374842682207895
0.125 0.2112717413898189 0.375
0.2012254219351524 0.125 0.375
0.125 0.125 0.4142761687808563
-0.04690322972089554 0.25 0.375
0 0.2618322307189221 0.375
0 0.25 0.3828046578975637
0.04690322972089554 0.25 0.375
0 0.2618322307189221 0.375
0 0.25 0.3828046578975637
POLYGONS 113 560
5 0 1 2 3 4
3 5 6 7
4 8 9 10 11
4 12 13 14 15
4 16 17 18 19
4 20 21 22 23
5 24 25 26 27 28
3 29 30 31
5 32 33 34 35 36
3 37 38 39
3 40 41 42
5 43 44 45 46 47
4 48 49 50 51
3 52 53 54
5 55 56 57 58 59
5 60 61 62 63 64
3 65 66 67
3 68 69 70
3 71 72 73
5 74 75 76 77 78
4 79 80 81 82
4 83 84 85 86
3 87 88 89
5 90 91 92 93 94
3 95 96 97
3 98 99 100
6 101 102 103 104 105 106
3 107 108 109
5 110 111 112 113 114
4 115 116 117 118
4 119 120 121 122
5 123 124 125 126 127
3 128 129 130
3 131 132 133
5 134 135 136 137 138
4 139 140 141 142
4 143 144 145 146
3 147 148 149
5 150 151 152 153 154
3 155 156 157
3 158 159 160
6 161 162 163 164 165 166
3 167 168 169
5 170 171 172 173 174
4 175 176 177 178
4 179 180 181 182
5 183 184 185 186 187
3 188 189 190
5 191 192 193 194 195
3 196 197 198
4 199 200 201 202
4 203 204 205 206
4 207 208 209 210
4 211 212 213 214
5 215 216 217 218 219
3 220 221 222
5 223 224 225 226 227
3 228 229 230
3 231 232 233
5 234 235 236 237 238
4 239 240 241 242
3 243 244 245
5 246 247 248 249 250
5 251 252 253 254 255
3 256 257 258
3 259 260 261
5 262 263 264 265 266
3 267 268 269
3 270 271 272
5 273 274 275 276 277
4 278 279 280 281
4 282 283 284 285
4 286 287 288 289
6 290 291 292 293 294 295
3 296 297 298
4 299 300 301 302
4 303 304 305 306
6 307 308 309 310 311 312
3 313 314 315
5 316 317 318 319 320
3 321 322 323
3 324 325 326
5 327 328 329 330 331
4 332 333 334 335
4 336 337 338 339
6 340 341 342 343 344 345
6 346 347 348 349 350 351
4 352 353 354 355
3 356 357 358
3 359 360 361
3 362 363 364
3 365 366 367
3 368 369 370
3 371 372 373
5 374 375 376 377 378
5 379 380 381 382 383
3 384 385 386
4 387 388 389 390
4 391 392 393 394
4 395 396 397 398
4 399 400 401 402
3 403 404 405
4 406 407 408 409
4 410 411 412 413
4 414 415 416 417
4 418 419 420 421
3 422 423 424
3 425 426 427
5 428 429 430 431 432
5 433 434 435 436 437
3 438 439 440
3 441 442 443
3 444 445 446
CELL_DATA 113
SCALARS c float
LOOKUP_TABLE default
-2001998
-2001997
-2000998
-2000997
-1999998
-1999997
-1998998
-1998997
-1998002
-1998001
-1998000
-1997999
-1997998
-1997002
-1997001
-1997000
-1996999
-1996998
-1001998
-1001997
-1000997
-999997
-998998
-998997
-998002
-997999
-997998
-997997
-997002
-997001
-997000
-996999
-996998
-1998
-1997
-997
3
1002
1003
1998
2001
2002
2003
2998
2999
3000
3001
3002
998002
998003
999002
999003
1000002
1000003
1001002
1001003
1001998
1001999
1002000
1002001
1002002
1002998
1002999
1003000
1003001
1003002
1997998
1997999
1998000
1998001
1998002
1998998
1999001
1999002
1999003
1999998
2000001
2000002
2000003
2000998
2000999
2001000
2001001
2001002
2001998
2001999
2002000
2002001
2002002
2002998
2002999
2003000
2003001
2997998
2997999
2998000
2998001
2998998
2998999
2999000
2999001
2999002
2999998
2999999
3000000
3000001
3000002
3000998
3000999
3001000
3001001
3001999
3002000
