# vtk DataFile Version 2.0
Interface from PLIC
ASCII
DATASET POLYDATA
POINTS 136 float
0.4452029359860911 0 0
0.4297965433868839 0.125 0
0.4104587690531782 0.125 0.125
0.4258651616523854 0 0.125
0.375 0.25 0.03019355388643269
0.375 0.2129072668881874 0.125
0.3586467538304051 0.25 0.125
0.4137708560456821 0.125 0.125
0.375 0.2130322700820627 0.125
0.375 0.25 0.03061126529064768
0.3802801637165165 0.25 0
0.4353322145291623 0.125 0
0.25 0.375 0.06910835645564282
0.2315633051792704 0.375 0.125
0.25 0.3645770914541541 0.125
0.2745058751831327 0.375 0
0.375 0.2674439781949956 0
0.375 0.25 0.06791983780315849
0.3613025401727524 0.25 0.125
0.25 0.369123963312168 0.125
0.25 0.375 0.1021210755768168
0.375 0.25 0.03666566769265345
0.375 0.2589485867798731 0
0.3809000473102239 0.25 0
0.125 0.4307570275221935 0.125
0.125 0.4492758305039198 0
0 0.4680080721872048 0
0 0.4494892692054785 0.125
0.125 0.4339141725875816 0.125
0.2373284935886537 0.375 0.125
0.25 0.375 0.08952955157605748
0.25 0.391774818347678 0
0.125 0.4573349566365045 0
0.25 0.375 0.1090732752412441
0.2748602072206988 0.375 0
0.25 0.3942290039489471 0
0.3666309239220655 0 0.25
0.375 0 0.2339276757563173
0.375 0.125 0.2000703299657469
0.3490009471730839 0.125 0.25
0.4119934687640274 0.125 0.125
0.375 0.125 0.1973678794600452
0.375 0 0.231856238483418
0.429623445513009 0 0.125
0.3504322037498456 0.125 0.25
0.375 0.125 0.2096929723493866
0.375 0.2231138710137676 0.125
0.3608540971759357 0.25 0.125
0.2846645414019671 0.25 0.25
0.375 0.2116301931436103 0.125
0.375 0.125 0.2020634999712778
0.4147088946484329 0.125 0.125
0.0728410461684055 0.375 0.25
0.125 0.375 0.2325355417177525
0.125 0.3651903640813148 0.25
0.25 0.3683342105691356 0.125
0.2397490157268016 0.375 0.125
0.125 0.375 0.2405307008332066
0.125 0.3688841697616409 0.25
0.25 0.2876018600192938 0.25
0.2777081950731755 0.25 0.25
0.25 0.2813394579132089 0.25
0.25 0.375 0.1264538028513235
0.250974427557856 0.375 0.125
0.3614908376929253 0.25 0.125
0.125 0.4340246179420833 0.125
0.125 0.375 0.2382361108999591
0.09257246855931496 0.375 0.25
0 0.3925052016132817 0.25
0 0.4576617774098377 0.125
0.125 0.375 0.235338130640609
0.2347587726350029 0.375 0.125
0.125 0.4358644277049845 0.125
0.25 0.375 0.1279436416981251
0.2519481062748667 0.375 0.125
0.25 0.3765360954629163 0.125
0.25 0 0.3668438432027441
0.2344338501002363 0 0.375
0.2009716019917701 0.125 0.375
0.25 0.125 0.3493107123952685
0.3477083797136553 0.125 0.25
0.25 0.125 0.3487944430345606
0.25 0.00277894595166385 0.375
0.2505892868694072 0 0.375
0.3742151416144389 0 0.25
0.0354028200703696 0.25 0.375
0.125 0.2147438664349509 0.375
0.125 0.25 0.3594614010168814
0.25 0.125 0.3507294304388963
0.2104830741813221 0.125 0.375
0.125 0.2247330038576292 0.375
0.125 0.25 0.3616987743007004
0.25 0.25 0.2849260716603543
0.2806138914933904 0.25 0.25
0.25 0.25 0.2807062865725704
0.25 0.125 0.3485921370000891
0.3482954737001126 0.125 0.25
0 0.375 0.2753130667242754
0 0.2684449596913275 0.375
0.07135316006919365 0.25 0.375
0.125 0.25 0.3620260302300337
0.125 0.3697442611035628 0.25
0.1046685064627332 0.375 0.25
0.25 0.25 0.2779572160683166
0.25 0.2815411864026583 0.25
0.1271830167223631 0.375 0.25
0.125 0.375 0.2514724304777983
0.125 0.25 0.362268897165083
0.25 0.2775137102781787 0.25
0.25 0.25 0.2754631715098326
0.2753732392234458 0.25 0.25
0.1134902618103163 0.375 0.25
0 0.375 0.2760976999974984
0 0.3951467437563126 0.25
0.128543038172534 0.375 0.25
0.125 0.375 0.2523640889149592
0.125 0.3768588461684185 0.25
0 0 0.4460046907201476
0 0.125 0.4306314632565982
0.125 0.125 0.41111295133773
0.125 0 0.4264861788012794
0.125 0.125 0.4125681861960873
0.1980758984706593 0.125 0.375
0.2321805337083677 0 0.375
0.125 0 0.4301013170035629
0.125 0.125 0.4144935759887232
0.125 0.2146860998896155 0.375
0.03533365101222546 0.25 0.375
0 0.25 0.3811278204751494
0 0.125 0.4361719912515175
0.125 0.2136556088618801 0.375
0.2034307745806551 0.125 0.375
0.125 0.125 0.41566260694192
0.04462958989274117 0.25 0.375
0 0.2609312275762305 0.375
0 0.25 0.3822207562705867
POLYGONS 34 170
4 0 1 2 3
3 4 5 6
5 7 8 9 10 11
3 12 13 14
6 15 16 17 18 19 20
3 21 22 23
4 24 25 26 27
5 28 29 30 31 32
3 33 34 35
4 36 37 38 39
4 40 41 42 43
5 44 45 46 47 48
3 49 50 51
3 52 53 54
5 55 56 57 58 59
5 60 61 62 63 64
5 65 66 67 68 69
3 70 71 72
3 73 74 75
4 76 77 78 79
5 80 81 82 83 84
3 85 86 87
5 88 89 90 91 92
4 93 94 95 96
6 97 98 99 100 101 102
5 103 104 105 106 107
3 108 109 110
3 111 112 113
3 114 115 116
4 117 118 119 120
4 121 122 123 124
5 125 126 127 128 129
3 130 131 132
3 133 134 135
CELL_DATA 34
SCALARS c float
LOOKUP_TABLE default
3
1002
1003
2001
2002
2003
3000
3001
3002
1000002
1000003
1001002
1001003
1002000
1002001
1002002
1003000
1003001
1003002
2000001
2000002
2001000
2001001
2001002
2002000
2002001
2002002
2003000
2003001
3000000
3000001
3001000
3001001
3002000
SCALARS l float
LOOKUP_TABLE default
0
0
0
0
0
0
0
0
0
0
0
0
0
0
0
0
0
0
0
0
0
0
0
0
0
0
0
0
0
0
0
0
0
0
SCALARS cl float
LOOKUP_TABLE default
0
0
0
0
0
0
0
0
0
0
0
0
0
0
0
0
0
0
0
0
0
0
0
0
0
0
0
0
0
0
0
0
0
0
