<?xml version="1.0"?>
<VTKFile type="StructuredGrid" version="0.1" byte_order="LittleEndian">
  <StructuredGrid WholeExtent="0 8 0 8 0 8">
    <Piece Extent="0 8 0 8 0 8">
      <PointData>
      </PointData>
      <CellData>
        <DataArray Name="vy" NumberOfComponents="1" type="Float32" format="ascii">
0.93265693228301471684 0.98727787099276387295 0.9728166400830059457 0.97033066627542541305 0.97033066022699021591 0.97281664497961239935 0.98727786815535212295 0.9326569330775765776 0.7880921502870082973 0.94037634306032902298 0.91579155395768230274 0.90492143836246707878 0.90492143610733810632 0.91579155596158356989 0.94037634150574422875 0.78809215129870080485 0.61988320529966201011 0.85720336617009440516 0.84659242730474015826 0.82935310618924429349 0.82935310361735603557 0.84659242884242480454 0.85720336497287130673 0.61988320348198699961 0.49754119234886440282 0.77391408728541721818 0.78582919871996281813 0.76919470462932659771 0.76919470341052276208 0.78582919886557367484 0.77391408508078463058 0.49754119275126451605 0.41636742463820758386 0.7009894033829890958 0.73421017305208591264 0.72298527531417944303 0.72298528664897909746 0.73421016199942323865 0.70098941233076872415 0.41636742865174658501 0.36487695148504961651 0.64565663773534853753 0.69520358109563085147 0.69089497549061629211 0.69089493886875186224 0.69520360782143553191 0.645656612827858023 0.3648769524551728205 0.33434564682772632827 0.60793856322183315033 0.66555228552714007506 0.66634530206410036435 0.6663453070830708258 0.66555227440059949728 0.60793856763985620884 0.33434564738705246922 0.31956611171700793905 0.58724309514931238851 0.64898284753911850142 0.65350962226654263354 0.65350957908801776686 0.64898287580246616368 0.58724306578963136882 0.31956612146522034301 0.98727787099152464201 1.0435352447594699044 1.0282007725890311978 1.0259447743716241241 1.0259447524563780618 1.028200790965236644 1.043535228934802106 0.9872778681559313263 0.94037634306558770536 1.1242612139148762118 1.0949230576365265311 1.083802084862588222 1.0838021436954043963 1.0949230083965266758 1.1242612486966319096 0.94037634150272753075 0.85720336616355419235 1.1815276792462598987 1.1649134696629761532 1.1449062724295149263 1.1449062061062507123 1.1649135261736252023 1.181527642053814553 0.85720336497422955357 0.77391408728458510602 1.2067359662792791486 1.2189522072137954911 1.195530055747354492 1.1955301172324399595 1.2189521527322266792 1.2067360041669055182 0.77391408507462200461 0.70098940337752302376 1.2040240505160439977 1.2513905607952682253 1.2305115207363281904 1.2305114999799477982 1.2513905791339781093 1.2040240328503821754 0.70098941232218892061 0.64565663772295645018 1.1896906435046814554 1.2720208946200710631 1.2585605610543726396 1.2585605498285716841 1.272020898020965296 1.189690627878805973 0.64565661281903941049 0.60793856321585049152 1.1685379446435568696 1.2748807748786248339 1.2691487482590313451 1.2691487066277449269 1.2748808023471933648 1.1685379268958304699 0.60793856762401754512 0.58724309513003536409 1.155767539936850552 1.2832322290040838464 1.2872641419409287522 1.2872642078410603261 1.2832321492825775611 1.1557675620149907569 0.58724306577737528379 0.97281664008233015295 1.0282007725664801256 1.0128375999908802996 1.0104761991437238855 1.0104762234572066681 1.0128375794396462517 1.0282007909775519039 0.97281664497966335858 0.91579155395098199577 1.0949230576606765464 1.0652275505906523279 1.0538415024526781583 1.053841417936444369 1.065227621369044142 1.0949230083822569792 0.91579155596490235958 0.84659242730146411215 1.1649134696487315477 1.1465554796775523361 1.126231355503597209 1.1262314559671300351 1.1465553949294915448 1.1649135261821954579 0.84659242884174801258 0.78582919869807765778 1.2189522072068452729 1.2275749874052077626 1.2033357958138080068 1.2033357033716656215 1.2275750681634358674 1.2189521527361886211 0.7858291988691382679 0.73421017301869173632 1.2513905608094155752 1.2945569400817611427 1.2718782231457359533 1.2718782478426478022 1.2945569157183967057 1.2513905791208266294 0.7342101619992567052 0.69520358104409785138 1.2720208946027860009 1.3518617860870929537 1.3355830457616033602 1.3355830423649674987 1.3518617914661721358 1.2720208980108080876 0.69520360781834333874 0.6655522854606875649 1.2748807748479562552 1.3819941927144310245 1.372938074452202839 1.3729381381287060204 1.3819941410631961798 1.2748808023267721445 0.66555227439302633297 0.64898284745365564241 1.2832322289312729779 1.4164954249944725628 1.4172204258503595664 1.4172202864477894124 1.416495555981899912 1.2832321492600233803 0.64898287579107405421 0.97033066627784225755 1.025944774426924333 1.0104761991033355262 1.0081195546928267692 1.0081195254031114494 1.0104762234789965714 1.0259447524242395478 0.97033066022498881686 0.904921438362652375 1.0838020847960834203 1.0538415025032874528 1.0422347858343155025 1.0422348876474576418 1.0538414179055397568 1.0838021437300442429 0.90492143610641662121 0.82935310619324364989 1.1449062724923984025 1.1262313554437928254 1.1054556149304572976 1.10545549559507994 1.1262314560037547384 1.144906206074613797 0.82935310361532543766 0.76919470462477945727 1.1955300557634496172 1.2033357958312151936 1.1787200886136672828 1.1787201939193723277 1.2033357033760516686 1.1955301172357297723 0.76919470340984397172 0.72298527528848366419 1.2305115206389876104 1.2718782232383416542 1.2490274910786716145 1.2490274649292820719 1.2718782478167471872 1.2305115000482547138 0.72298528664629457818 0.69089497543925604273 1.258560560995151123 1.3355830457898216768 1.3191285547220430452 1.3191285528815288597 1.3355830423717027777 1.2585605498547971504 0.69089493885504082993 0.6663453019615352968 1.2691487481046885843 1.3729380744875085973 1.3635704435212288033 1.3635703594623347357 1.3729381381014023056 1.2691487066580533494 0.66634530706233885411 0.65350962212909335936 1.2872641416691399385 1.4172204259217053846 1.4172362347451148423 1.4172363681382631473 1.4172202863475180656 1.2872642078665548215 0.65350957904972006851 0.97033066022132163919 1.0259447523692821758 1.0104762235347226618 1.0081195253588484118 1.0081195547169252702 1.0104761990991684151 1.0259447744194432062 0.97033066627801878301 0.9049214361087661862 1.0838021437970397631 1.0538414178241082286 1.0422348877091880404 1.042234785797162111 1.0538415025123351043 1.0838020848025529119 0.90492143836070004781 0.82935310360378189376 1.1449062060141823594 1.1262314560889241655 1.1054554955327369203 1.1054556149675849319 1.126231355439017312 1.1449062724852665518 0.82935310619791902109 0.76919470340681617149 1.1955301172361427753 1.203335703380255195 1.1787201939349705171 1.1787200886181252724 1.2033357958280230804 1.1955300557598422806 0.76919470463132766369 0.72298528663002192829 1.230511500134494618 1.2718782477713967971 1.2490274649997086254 1.2490274910673633268 1.2718782232218863726 1.2305115206683470142 0.72298527531365441856 0.69089493880812580251 1.2585605498458969365 1.3355830423992061107 1.3191285528659457693 1.3191285547597841887 1.3355830457732882355 1.258560561045966697 0.69089497549051737124 0.66634530701290961563 1.2691487066604567602 1.3729381380780927291 1.3635703594340649047 1.3635704435435465065 1.3729380744764776434 1.2691487481959549122 0.66634530203563369088 0.65350957896998540519 1.2872642078523623965 1.4172202862050606864 1.4172363680998969482 1.4172362347285645257 1.4172204259155705142 1.2872641418200188035 0.65350962222877628793 0.9728166449858949294 1.0282007910691557395 1.0128375793346355849 1.0104762235565136752 1.0104761990587800558 1.0128376000494156983 1.0282007725303610179 0.9728166400793112345 0.91579155595546746227 1.0949230082678225173 1.0652276215133562598 1.0538414177932027282 1.0538415025629443988 1.065227550507564791 1.0949230577077870841 0.91579155396055567095 0.84659242885704555359 1.1649135262934111612 1.1465553947851341299 1.1262314561255468703 1.1262313553792100418 1.1465554797616934746 1.1649134695980472021 0.84659242729676620343 0.78582919885195379184 1.2189521527491722352 1.2275750681906163475 1.2033357033846405759 1.2033357958454304892 1.2275749874027093167 1.2189522072105214434 0.78582919872703016484 0.73421016197233357481 1.2513905789745869424 1.2945569158578960067 1.2718782477454990687 1.2718782233144949601 1.2945569400243335245 1.2513905608904509759 0.73421017306231572963 0.6952036077695504801 1.2720208979339997502 1.3518617914667647728 1.3355830424059464967 1.335583045801511437 1.3518617860972437228 1.2720208946632269864 0.6952035811113516095 0.66555227429606989009 1.2748808021518789335 1.3819941411004710297 1.372938138050793011 1.3729380745117860663 1.3819941926852945535 1.2748807749686648094 0.66555228556351397895 0.64898287568578505446 1.2832321489286730998 1.4164955561367824632 1.4172202861047922262 1.4172204259869194409 1.4164954248569614492 1.2832322291559579153 0.64898284757045499038 0.98727786815212525973 1.0435352288361818829 1.0282007910814712215 1.0259447523371423294 1.0259447744747423048 1.0282007725078092797 1.0435352448147277027 0.98727787099455710518 0.94037634150862070559 1.1242612488052132758 1.0949230082535528208 1.0838021438316829403 1.0838020847360496646 1.0949230577319370994 1.124261213853831487 0.94037634305852224603 0.85720336496060645093 1.1815276419709890288 1.1649135263019829711 1.1449062059825390048 1.1449062725481424785 1.1649134695838041509 1.1815276792939171102 0.85720336617706904825 0.77391408507046055565 1.2067360041497594558 1.2189521527531346212 1.1955301172394237064 1.1955300557759289681 1.2189522072035716693 1.2067359662907151119 0.77391408729111643705 0.70098941233211220503 1.2040240330485838527 1.2513905789614305775 1.230511500202818187 1.2305115205710235315 1.2513905609045923306 1.2040240504039794178 0.70098940338105641956 0.6456566128147454009 1.1896906279816046315 1.2720208979238345481 1.258560549872163703 1.2585605609867873689 1.2720208946459319321 1.189690643442165241 0.64565663774112502793 0.60793856766946141601 1.1685379270924944883 1.2748808021314523842 1.2691487066908131442 1.2691487480416590028 1.2748807749379889032 1.1685379445264372222 0.6079385632038190046 0.58724306579048157761 1.1557675621932976817 1.2832321489061166986 1.2872642078778993024 1.2872641415482701799 1.28323222908314305 1.1557675398246434195 0.58724309514746442229 0.93265693307963759562 0.98727786815270468512 0.9728166449859462217 0.97033066021931790868 0.97033066628043374013 0.9728166400786352197 0.98727787099331776322 0.93265693228185242436 0.78809215129832543845 0.94037634150560367452 0.91579155595878614093 0.90492143610785191754 0.90492143836089389275 0.91579155395385591909 0.9403763430637813725 0.78809215028719514784 0.61988320348612258037 0.8572033649619678064 0.84659242885637342457 0.82935310360174319122 0.82935310620191071695 0.84659242729349482026 0.85720336617053161099 0.61988320529771834266 0.49754119272990121603 0.77391408506430292569 0.7858291988555203833 0.76919470340613638193 0.76919470462677996814 0.78582919870514666982 0.77391408729028865476 0.49754119236159261019 0.41636742864471865122 0.70098941232353195741 0.73421016197216137922 0.72298528662739225403 0.72298527528801448394 0.73421017302891555811 0.70098940337558968139 0.41636742464288784005 0.36487695245673612554 0.64565661280592445692 0.69520360776645695466 0.69089493879450680769 0.69089497543924927037 0.69520358105981661101 0.64565663772872994297 0.36487695148543908275 0.33434564740513622594 0.60793856765362119798 0.66555227428850349813 0.66634530699225957839 0.66634530193315122393 0.66555228549706779706 0.60793856319783523556 0.3343456468192872455 0.31956612147848295624 0.58724306577822515951 0.64898287567440060553 0.65350957893173955426 0.65350962209137919423 0.64898284748499868169 0.58724309512818695378 0.31956611171246973591 
        </DataArray>
      </CellData>
      <Points>
        <DataArray Name="m" NumberOfComponents="3" type="Float32" format="ascii">
0 0 0 0.125 0 0 0.25 0 0 0.375 0 0 0.5 0 0 0.625 0 0 0.75 0 0 0.875 0 0 1 0 0 0 0.125 0 0.125 0.125 0 0.25 0.125 0 0.375 0.125 0 0.5 0.125 0 0.625 0.125 0 0.75 0.125 0 0.875 0.125 0 1 0.125 0 0 0.25 0 0.125 0.25 0 0.25 0.25 0 0.375 0.25 0 0.5 0.25 0 0.625 0.25 0 0.75 0.25 0 0.875 0.25 0 1 0.25 0 0 0.375 0 0.125 0.375 0 0.25 0.375 0 0.375 0.375 0 0.5 0.375 0 0.625 0.375 0 0.75 0.375 0 0.875 0.375 0 1 0.375 0 0 0.5 0 0.125 0.5 0 0.25 0.5 0 0.375 0.5 0 0.5 0.5 0 0.625 0.5 0 0.75 0.5 0 0.875 0.5 0 1 0.5 0 0 0.625 0 0.125 0.625 0 0.25 0.625 0 0.375 0.625 0 0.5 0.625 0 0.625 0.625 0 0.75 0.625 0 0.875 0.625 0 1 0.625 0 0 0.75 0 0.125 0.75 0 0.25 0.75 0 0.375 0.75 0 0.5 0.75 0 0.625 0.75 0 0.75 0.75 0 0.875 0.75 0 1 0.75 0 0 0.875 0 0.125 0.875 0 0.25 0.875 0 0.375 0.875 0 0.5 0.875 0 0.625 0.875 0 0.75 0.875 0 0.875 0.875 0 1 0.875 0 0 1 0 0.125 1 0 0.25 1 0 0.375 1 0 0.5 1 0 0.625 1 0 0.75 1 0 0.875 1 0 1 1 0 0 0 0.125 0.125 0 0.125 0.25 0 0.125 0.375 0 0.125 0.5 0 0.125 0.625 0 0.125 0.75 0 0.125 0.875 0 0.125 1 0 0.125 0 0.125 0.125 0.125 0.125 0.125 0.25 0.125 0.125 0.375 0.125 0.125 0.5 0.125 0.125 0.625 0.125 0.125 0.75 0.125 0.125 0.875 0.125 0.125 1 0.125 0.125 0 0.25 0.125 0.125 0.25 0.125 0.25 0.25 0.125 0.375 0.25 0.125 0.5 0.25 0.125 0.625 0.25 0.125 0.75 0.25 0.125 0.875 0.25 0.125 1 0.25 0.125 0 0.375 0.125 0.125 0.375 0.125 0.25 0.375 0.125 0.375 0.375 0.125 0.5 0.375 0.125 0.625 0.375 0.125 0.75 0.375 0.125 0.875 0.375 0.125 1 0.375 0.125 0 0.5 0.125 0.125 0.5 0.125 0.25 0.5 0.125 0.375 0.5 0.125 0.5 0.5 0.125 0.625 0.5 0.125 0.75 0.5 0.125 0.875 0.5 0.125 1 0.5 0.125 0 0.625 0.125 0.125 0.625 0.125 0.25 0.625 0.125 0.375 0.625 0.125 0.5 0.625 0.125 0.625 0.625 0.125 0.75 0.625 0.125 0.875 0.625 0.125 1 0.625 0.125 0 0.75 0.125 0.125 0.75 0.125 0.25 0.75 0.125 0.375 0.75 0.125 0.5 0.75 0.125 0.625 0.75 0.125 0.75 0.75 0.125 0.875 0.75 0.125 1 0.75 0.125 0 0.875 0.125 0.125 0.875 0.125 0.25 0.875 0.125 0.375 0.875 0.125 0.5 0.875 0.125 0.625 0.875 0.125 0.75 0.875 0.125 0.875 0.875 0.125 1 0.875 0.125 0 1 0.125 0.125 1 0.125 0.25 1 0.125 0.375 1 0.125 0.5 1 0.125 0.625 1 0.125 0.75 1 0.125 0.875 1 0.125 1 1 0.125 0 0 0.25 0.125 0 0.25 0.25 0 0.25 0.375 0 0.25 0.5 0 0.25 0.625 0 0.25 0.75 0 0.25 0.875 0 0.25 1 0 0.25 0 0.125 0.25 0.125 0.125 0.25 0.25 0.125 0.25 0.375 0.125 0.25 0.5 0.125 0.25 0.625 0.125 0.25 0.75 0.125 0.25 0.875 0.125 0.25 1 0.125 0.25 0 0.25 0.25 0.125 0.25 0.25 0.25 0.25 0.25 0.375 0.25 0.25 0.5 0.25 0.25 0.625 0.25 0.25 0.75 0.25 0.25 0.875 0.25 0.25 1 0.25 0.25 0 0.375 0.25 0.125 0.375 0.25 0.25 0.375 0.25 0.375 0.375 0.25 0.5 0.375 0.25 0.625 0.375 0.25 0.75 0.375 0.25 0.875 0.375 0.25 1 0.375 0.25 0 0.5 0.25 0.125 0.5 0.25 0.25 0.5 0.25 0.375 0.5 0.25 0.5 0.5 0.25 0.625 0.5 0.25 0.75 0.5 0.25 0.875 0.5 0.25 1 0.5 0.25 0 0.625 0.25 0.125 0.625 0.25 0.25 0.625 0.25 0.375 0.625 0.25 0.5 0.625 0.25 0.625 0.625 0.25 0.75 0.625 0.25 0.875 0.625 0.25 1 0.625 0.25 0 0.75 0.25 0.125 0.75 0.25 0.25 0.75 0.25 0.375 0.75 0.25 0.5 0.75 0.25 0.625 0.75 0.25 0.75 0.75 0.25 0.875 0.75 0.25 1 0.75 0.25 0 0.875 0.25 0.125 0.875 0.25 0.25 0.875 0.25 0.375 0.875 0.25 0.5 0.875 0.25 0.625 0.875 0.25 0.75 0.875 0.25 0.875 0.875 0.25 1 0.875 0.25 0 1 0.25 0.125 1 0.25 0.25 1 0.25 0.375 1 0.25 0.5 1 0.25 0.625 1 0.25 0.75 1 0.25 0.875 1 0.25 1 1 0.25 0 0 0.375 0.125 0 0.375 0.25 0 0.375 0.375 0 0.375 0.5 0 0.375 0.625 0 0.375 0.75 0 0.375 0.875 0 0.375 1 0 0.375 0 0.125 0.375 0.125 0.125 0.375 0.25 0.125 0.375 0.375 0.125 0.375 0.5 0.125 0.375 0.625 0.125 0.375 0.75 0.125 0.375 0.875 0.125 0.375 1 0.125 0.375 0 0.25 0.375 0.125 0.25 0.375 0.25 0.25 0.375 0.375 0.25 0.375 0.5 0.25 0.375 0.625 0.25 0.375 0.75 0.25 0.375 0.875 0.25 0.375 1 0.25 0.375 0 0.375 0.375 0.125 0.375 0.375 0.25 0.375 0.375 0.375 0.375 0.375 0.5 0.375 0.375 0.625 0.375 0.375 0.75 0.375 0.375 0.875 0.375 0.375 1 0.375 0.375 0 0.5 0.375 0.125 0.5 0.375 0.25 0.5 0.375 0.375 0.5 0.375 0.5 0.5 0.375 0.625 0.5 0.375 0.75 0.5 0.375 0.875 0.5 0.375 1 0.5 0.375 0 0.625 0.375 0.125 0.625 0.375 0.25 0.625 0.375 0.375 0.625 0.375 0.5 0.625 0.375 0.625 0.625 0.375 0.75 0.625 0.375 0.875 0.625 0.375 1 0.625 0.375 0 0.75 0.375 0.125 0.75 0.375 0.25 0.75 0.375 0.375 0.75 0.375 0.5 0.75 0.375 0.625 0.75 0.375 0.75 0.75 0.375 0.875 0.75 0.375 1 0.75 0.375 0 0.875 0.375 0.125 0.875 0.375 0.25 0.875 0.375 0.375 0.875 0.375 0.5 0.875 0.375 0.625 0.875 0.375 0.75 0.875 0.375 0.875 0.875 0.375 1 0.875 0.375 0 1 0.375 0.125 1 0.375 0.25 1 0.375 0.375 1 0.375 0.5 1 0.375 0.625 1 0.375 0.75 1 0.375 0.875 1 0.375 1 1 0.375 0 0 0.5 0.125 0 0.5 0.25 0 0.5 0.375 0 0.5 0.5 0 0.5 0.625 0 0.5 0.75 0 0.5 0.875 0 0.5 1 0 0.5 0 0.125 0.5 0.125 0.125 0.5 0.25 0.125 0.5 0.375 0.125 0.5 0.5 0.125 0.5 0.625 0.125 0.5 0.75 0.125 0.5 0.875 0.125 0.5 1 0.125 0.5 0 0.25 0.5 0.125 0.25 0.5 0.25 0.25 0.5 0.375 0.25 0.5 0.5 0.25 0.5 0.625 0.25 0.5 0.75 0.25 0.5 0.875 0.25 0.5 1 0.25 0.5 0 0.375 0.5 0.125 0.375 0.5 0.25 0.375 0.5 0.375 0.375 0.5 0.5 0.375 0.5 0.625 0.375 0.5 0.75 0.375 0.5 0.875 0.375 0.5 1 0.375 0.5 0 0.5 0.5 0.125 0.5 0.5 0.25 0.5 0.5 0.375 0.5 0.5 0.5 0.5 0.5 0.625 0.5 0.5 0.75 0.5 0.5 0.875 0.5 0.5 1 0.5 0.5 0 0.625 0.5 0.125 0.625 0.5 0.25 0.625 0.5 0.375 0.625 0.5 0.5 0.625 0.5 0.625 0.625 0.5 0.75 0.625 0.5 0.875 0.625 0.5 1 0.625 0.5 0 0.75 0.5 0.125 0.75 0.5 0.25 0.75 0.5 0.375 0.75 0.5 0.5 0.75 0.5 0.625 0.75 0.5 0.75 0.75 0.5 0.875 0.75 0.5 1 0.75 0.5 0 0.875 0.5 0.125 0.875 0.5 0.25 0.875 0.5 0.375 0.875 0.5 0.5 0.875 0.5 0.625 0.875 0.5 0.75 0.875 0.5 0.875 0.875 0.5 1 0.875 0.5 0 1 0.5 0.125 1 0.5 0.25 1 0.5 0.375 1 0.5 0.5 1 0.5 0.625 1 0.5 0.75 1 0.5 0.875 1 0.5 1 1 0.5 0 0 0.625 0.125 0 0.625 0.25 0 0.625 0.375 0 0.625 0.5 0 0.625 0.625 0 0.625 0.75 0 0.625 0.875 0 0.625 1 0 0.625 0 0.125 0.625 0.125 0.125 0.625 0.25 0.125 0.625 0.375 0.125 0.625 0.5 0.125 0.625 0.625 0.125 0.625 0.75 0.125 0.625 0.875 0.125 0.625 1 0.125 0.625 0 0.25 0.625 0.125 0.25 0.625 0.25 0.25 0.625 0.375 0.25 0.625 0.5 0.25 0.625 0.625 0.25 0.625 0.75 0.25 0.625 0.875 0.25 0.625 1 0.25 0.625 0 0.375 0.625 0.125 0.375 0.625 0.25 0.375 0.625 0.375 0.375 0.625 0.5 0.375 0.625 0.625 0.375 0.625 0.75 0.375 0.625 0.875 0.375 0.625 1 0.375 0.625 0 0.5 0.625 0.125 0.5 0.625 0.25 0.5 0.625 0.375 0.5 0.625 0.5 0.5 0.625 0.625 0.5 0.625 0.75 0.5 0.625 0.875 0.5 0.625 1 0.5 0.625 0 0.625 0.625 0.125 0.625 0.625 0.25 0.625 0.625 0.375 0.625 0.625 0.5 0.625 0.625 0.625 0.625 0.625 0.75 0.625 0.625 0.875 0.625 0.625 1 0.625 0.625 0 0.75 0.625 0.125 0.75 0.625 0.25 0.75 0.625 0.375 0.75 0.625 0.5 0.75 0.625 0.625 0.75 0.625 0.75 0.75 0.625 0.875 0.75 0.625 1 0.75 0.625 0 0.875 0.625 0.125 0.875 0.625 0.25 0.875 0.625 0.375 0.875 0.625 0.5 0.875 0.625 0.625 0.875 0.625 0.75 0.875 0.625 0.875 0.875 0.625 1 0.875 0.625 0 1 0.625 0.125 1 0.625 0.25 1 0.625 0.375 1 0.625 0.5 1 0.625 0.625 1 0.625 0.75 1 0.625 0.875 1 0.625 1 1 0.625 0 0 0.75 0.125 0 0.75 0.25 0 0.75 0.375 0 0.75 0.5 0 0.75 0.625 0 0.75 0.75 0 0.75 0.875 0 0.75 1 0 0.75 0 0.125 0.75 0.125 0.125 0.75 0.25 0.125 0.75 0.375 0.125 0.75 0.5 0.125 0.75 0.625 0.125 0.75 0.75 0.125 0.75 0.875 0.125 0.75 1 0.125 0.75 0 0.25 0.75 0.125 0.25 0.75 0.25 0.25 0.75 0.375 0.25 0.75 0.5 0.25 0.75 0.625 0.25 0.75 0.75 0.25 0.75 0.875 0.25 0.75 1 0.25 0.75 0 0.375 0.75 0.125 0.375 0.75 0.25 0.375 0.75 0.375 0.375 0.75 0.5 0.375 0.75 0.625 0.375 0.75 0.75 0.375 0.75 0.875 0.375 0.75 1 0.375 0.75 0 0.5 0.75 0.125 0.5 0.75 0.25 0.5 0.75 0.375 0.5 0.75 0.5 0.5 0.75 0.625 0.5 0.75 0.75 0.5 0.75 0.875 0.5 0.75 1 0.5 0.75 0 0.625 0.75 0.125 0.625 0.75 0.25 0.625 0.75 0.375 0.625 0.75 0.5 0.625 0.75 0.625 0.625 0.75 0.75 0.625 0.75 0.875 0.625 0.75 1 0.625 0.75 0 0.75 0.75 0.125 0.75 0.75 0.25 0.75 0.75 0.375 0.75 0.75 0.5 0.75 0.75 0.625 0.75 0.75 0.75 0.75 0.75 0.875 0.75 0.75 1 0.75 0.75 0 0.875 0.75 0.125 0.875 0.75 0.25 0.875 0.75 0.375 0.875 0.75 0.5 0.875 0.75 0.625 0.875 0.75 0.75 0.875 0.75 0.875 0.875 0.75 1 0.875 0.75 0 1 0.75 0.125 1 0.75 0.25 1 0.75 0.375 1 0.75 0.5 1 0.75 0.625 1 0.75 0.75 1 0.75 0.875 1 0.75 1 1 0.75 0 0 0.875 0.125 0 0.875 0.25 0 0.875 0.375 0 0.875 0.5 0 0.875 0.625 0 0.875 0.75 0 0.875 0.875 0 0.875 1 0 0.875 0 0.125 0.875 0.125 0.125 0.875 0.25 0.125 0.875 0.375 0.125 0.875 0.5 0.125 0.875 0.625 0.125 0.875 0.75 0.125 0.875 0.875 0.125 0.875 1 0.125 0.875 0 0.25 0.875 0.125 0.25 0.875 0.25 0.25 0.875 0.375 0.25 0.875 0.5 0.25 0.875 0.625 0.25 0.875 0.75 0.25 0.875 0.875 0.25 0.875 1 0.25 0.875 0 0.375 0.875 0.125 0.375 0.875 0.25 0.375 0.875 0.375 0.375 0.875 0.5 0.375 0.875 0.625 0.375 0.875 0.75 0.375 0.875 0.875 0.375 0.875 1 0.375 0.875 0 0.5 0.875 0.125 0.5 0.875 0.25 0.5 0.875 0.375 0.5 0.875 0.5 0.5 0.875 0.625 0.5 0.875 0.75 0.5 0.875 0.875 0.5 0.875 1 0.5 0.875 0 0.625 0.875 0.125 0.625 0.875 0.25 0.625 0.875 0.375 0.625 0.875 0.5 0.625 0.875 0.625 0.625 0.875 0.75 0.625 0.875 0.875 0.625 0.875 1 0.625 0.875 0 0.75 0.875 0.125 0.75 0.875 0.25 0.75 0.875 0.375 0.75 0.875 0.5 0.75 0.875 0.625 0.75 0.875 0.75 0.75 0.875 0.875 0.75 0.875 1 0.75 0.875 0 0.875 0.875 0.125 0.875 0.875 0.25 0.875 0.875 0.375 0.875 0.875 0.5 0.875 0.875 0.625 0.875 0.875 0.75 0.875 0.875 0.875 0.875 0.875 1 0.875 0.875 0 1 0.875 0.125 1 0.875 0.25 1 0.875 0.375 1 0.875 0.5 1 0.875 0.625 1 0.875 0.75 1 0.875 0.875 1 0.875 1 1 0.875 0 0 1 0.125 0 1 0.25 0 1 0.375 0 1 0.5 0 1 0.625 0 1 0.75 0 1 0.875 0 1 1 0 1 0 0.125 1 0.125 0.125 1 0.25 0.125 1 0.375 0.125 1 0.5 0.125 1 0.625 0.125 1 0.75 0.125 1 0.875 0.125 1 1 0.125 1 0 0.25 1 0.125 0.25 1 0.25 0.25 1 0.375 0.25 1 0.5 0.25 1 0.625 0.25 1 0.75 0.25 1 0.875 0.25 1 1 0.25 1 0 0.375 1 0.125 0.375 1 0.25 0.375 1 0.375 0.375 1 0.5 0.375 1 0.625 0.375 1 0.75 0.375 1 0.875 0.375 1 1 0.375 1 0 0.5 1 0.125 0.5 1 0.25 0.5 1 0.375 0.5 1 0.5 0.5 1 0.625 0.5 1 0.75 0.5 1 0.875 0.5 1 1 0.5 1 0 0.625 1 0.125 0.625 1 0.25 0.625 1 0.375 0.625 1 0.5 0.625 1 0.625 0.625 1 0.75 0.625 1 0.875 0.625 1 1 0.625 1 0 0.75 1 0.125 0.75 1 0.25 0.75 1 0.375 0.75 1 0.5 0.75 1 0.625 0.75 1 0.75 0.75 1 0.875 0.75 1 1 0.75 1 0 0.875 1 0.125 0.875 1 0.25 0.875 1 0.375 0.875 1 0.5 0.875 1 0.625 0.875 1 0.75 0.875 1 0.875 0.875 1 1 0.875 1 0 1 1 0.125 1 1 0.25 1 1 0.375 1 1 0.5 1 1 0.625 1 1 0.75 1 1 0.875 1 1 1 1 1         </DataArray>
      </Points>
    </Piece>
  </StructuredGrid>
</VTKFile>
