<?xml version="1.0"?>
<VTKFile type="StructuredGrid" version="0.1" byte_order="LittleEndian">
  <StructuredGrid WholeExtent="0 8 0 8 0 8">
    <Piece Extent="0 8 0 8 0 8">
      <PointData>
      </PointData>
      <CellData>
        <DataArray Name="vy" NumberOfComponents="1" type="Float32" format="ascii">
0.93319935975975987219 0.9875160291044281502 0.97322689785369953519 0.97061801242383771715 0.97061801241573197885 0.97322689765543901608 0.98751602812598038295 0.93319935884653060221 0.78847349580609427111 0.94052590203312957939 0.91629879685143145185 0.90527164098583823293 0.90527166312901863332 0.91629877850802177175 0.9405259162479199242 0.78847349720182458022 0.61916363518037043079 0.85717828930797246301 0.84685808374687865374 0.82930207892589391516 0.82930206405943784898 0.84685809692984481689 0.85717827739548768662 0.61916363353034575834 0.49615642196730469493 0.77384593536347312526 0.78574093686278845272 0.76870965891994103014 0.76870965148601866357 0.78574094088770096711 0.77384593062346718195 0.49615641083244566012 0.41501786695815334749 0.70069376404095484734 0.73357498776412777275 0.72189066950136571155 0.72189072318794234029 0.73357494170209458506 0.7006937852592233229 0.41501786855971550816 0.36421984073382979163 0.64520940341794918993 0.69411223506893648949 0.68941676770685256237 0.68941676069589097331 0.69411224139986915649 0.6452093972955629253 0.36421982825835463871 0.3367516182323474494 0.61157590887538348934 0.66695582778127571189 0.6661060215494399861 0.66610602248208250487 0.66695583266688673874 0.61157590969643338408 0.33675160830889694363 0.3234376118660902133 0.59189810543084009353 0.6510592039532698827 0.65351273214912874998 0.65351279774039761072 0.65105915328255070662 0.59189812023998011892 0.32343759485730350089 0.98751602908028435213 1.0434185622232610147 1.0282208336668947624 1.0258377043944049145 1.0258377719893028157 1.0282207756984260705 1.0434186101790956513 0.98751602813909156175 0.94052590240587574666 1.1236367378900840031 1.0945651777313836206 1.0832823535228011114 1.0832822280459406539 1.0945652845289142174 1.1236366559328758719 0.94052591604148227944 0.85717828890279001985 1.1813149292022604442 1.1649550796943310971 1.1446066719150338464 1.1446067329632494403 1.1649550253852463122 1.1813149568187746308 0.8571782776087030209 0.77384593612898822101 1.2075602138559782261 1.2197824988054937201 1.1958443800715377048 1.195844308074660356 1.2197825612747981161 1.207560194980496604 0.77384593018928748975 0.7006937633095582374 1.2054658872678554182 1.2525904248821906339 1.2309271816155076262 1.2309273097685440312 1.2525903149849659801 1.2054659781173546751 0.70069378562771067465 0.64520940499183965233 1.1908422980288448922 1.2731268833497026982 1.2592130326071895308 1.2592130628738866793 1.2731268626043572567 1.1908423130178014127 0.64520939641846142276 0.61157591026954871705 1.1735794815372706523 1.2767985830385935042 1.2689933840437583878 1.2689934222338872249 1.2767985783875224204 1.1735795401092117274 0.61157590889098023546 0.59189810978612034109 1.1613481385113235689 1.2851591633351548971 1.2857412426063279387 1.2857414389077577166 1.2851589948258559382 1.1613482470964395787 0.59189811781579315664 0.97322689791036864904 1.0282208325409150085 1.0130241326466957741 1.0105369529884025148 1.01053687531273928 1.0130242000709437367 1.0282207763139634693 0.97322689762509995148 0.91629879596674279618 1.0945651802077511761 1.0651713597940108968 1.0536324038079867282 1.0536325642695623106 1.0651712218392999088 1.0945652831759347112 0.91629877898753531174 0.8468580848334248401 1.1649550768179475213 1.1468744197374611815 1.1262196620268785097 1.1262195624250801451 1.1468745081898401583 1.1649550269514661327 0.846858096323197862 0.78574093530488364756 1.2197825011344609614 1.2283706722236304998 1.2035848746012192123 1.20358501769189985 1.2283705499666337513 1.2197825599975518074 0.78574094170829700268 0.73357498952897559619 1.2525904215874295033 1.2953492561983421805 1.271743322981593538 1.2717431863074017961 1.2953493753861569093 1.2525903167494245594 0.73357494068286810407 0.69411223123651399902 1.2731268862206064352 1.3527495262146085331 1.335767972295793804 1.3357678835086681524 1.3527495927179964408 1.2731268609990431528 0.6941122434352722248 0.66695582988099777477 1.2767985805203838634 1.3806435564518610981 1.3696089126308543804 1.3696090805521772271 1.3806433746880857338 1.2767985796687575384 0.66695583140325287452 0.65105919724682725924 1.2851591736718677161 1.412522110697760569 1.4086169462057067658 1.4086168180468543465 1.4125221987902059073 1.2851589890327064225 0.65105915677909909078 0.97061801234215705492 1.0258377072129856167 1.0105369511775064151 1.0080589702687545728 1.0080590568235681115 1.0105368763103546037 1.0258377704598400371 0.97061801246448031755 0.90527164264389958781 1.083282346896505377 1.0536324091496351851 1.0418774904207286358 1.0418773123607205644 1.0536325613548611635 1.0832822316666079754 0.90527166222194643819 0.82930207727970850495 1.1446066795418561313 1.1262196559471580048 1.1051021009480495039 1.1051022042008193935 1.1262195656897049378 1.1446067287451306971 0.82930206492666869167 0.76870966131679163702 1.1958443738678081747 1.2035848805982116705 1.1783953316744681938 1.1783951744534466588 1.2035850144354511837 1.1958443114595196377 0.76870965015510006602 0.72189066767558762727 1.2309271902545397825 1.2717433165563856168 1.2479217090712220184 1.2479218532898017635 1.271743189823900666 1.2309273050514637493 0.72189072412891375219 0.68941677333390694038 1.259213025466288105 1.3357679763079040036 1.3185424363293070105 1.3185425586877919102 1.3357678813404447737 1.259213066774076184 0.68941675753313891306 0.66610601586106277239 1.2689933884837589773 1.3696089161538498313 1.3583145892778909491 1.3583144457696727514 1.3696090787469150651 1.2689934197376619984 0.66610602528628770624 0.65351274467065600948 1.28574121168338662 1.4086169787544826626 1.4040728339299006766 1.4040730664694842655 1.408616800266796254 1.2857414554703028298 0.65351279041510412782 0.97061801253528101618 1.0258377677071153222 1.0105368789612845237 1.0080590546883716474 1.0080589714424357251 1.0105369510061488203 1.0258377067412596251 0.97061801236357847511 0.90527166103487910487 1.0832822384935305582 1.0536325535506714246 1.0418773189022698666 1.0418774868498721364 1.0536324096625626634 1.0832823478265261041 0.90527164212882671457 0.8293020665088337573 1.1446067212224388943 1.1262195748650751792 1.1051021965862619645 1.105102105057970574 1.1262196551915233389 1.1446066782734607425 0.82930207755899609801 0.7687096490174939456 1.1958443179304352189 1.2035850067397655394 1.1783951806766783665 1.1783953282942014607 1.2035848806060742699 1.1958443746916298522 0.76870966023805897827 0.72189072619086203098 1.2309272969264799524 1.2717432004038005111 1.2479218450023814579 1.2479217136254963094 1.2717433152956383324 1.230927188609612033 0.72189066780066546425 0.68941675377523270463 1.2592130747826433268 1.3357678762927662763 1.3185425628282578803 1.3185424341648295243 1.335767976247915767 1.2592130260946412523 0.68941677137842050094 0.6661060339083241244 1.2689934168299406014 1.3696090769539945864 1.3583144471999986092 1.3583145887400969176 1.3696089147366405925 1.2689933869050957771 0.66610601499514732193 0.65351278344832597345 1.2857414848835624355 1.4086167554474535724 1.4040731037035127926 1.4040728137742750636 1.4086169803113146592 1.285741217158854921 0.65351273940825993503 0.97322689758782987557 1.0282207806562730923 1.0130241953795751098 1.0105368799596070595 1.0105369491959423911 1.0130241352104725205 1.0282208309632050458 0.97322689789362892832 0.91629878074803727817 1.0945652727222281442 1.0651712352646298676 1.0536325506347501424 1.0536324150030180746 1.0651713524737183025 1.0945651841864099119 0.91629879563407723442 0.8468580948582505874 1.1649550390038259096 1.1468744929117857811 1.1262195781352977164 1.1262196491173950275 1.1468744280927403167 1.1649550722731025765 0.84685808486473124201 0.78574094390533244514 1.2197825503197274877 1.2283705647593659016 1.2035850034695683153 1.2035848865892950776 1.2283706641726135356 1.2197825047734469628 0.78574093516960963335 0.73357493975377952022 1.2525903306479655441 1.2953493583376274323 1.2717432039364626739 1.2717433088865641722 1.2953492654858043132 1.252590416259722117 0.73357498874343640693 0.69411224884598354823 1.2731268492198011266 1.3527496037296404818 1.3357678742366243529 1.3357679803721396183 1.3527495201906221123 1.2731268905382395751 0.69411223090057538876 0.66695582106171102943 1.2767985846063059086 1.3806433816301340034 1.369609075315081137 1.3696089184260875626 1.3806435526348319609 1.2767985794606278027 0.66695583391374957394 0.65105917073688002183 1.2851589412863686501 1.41252228009478209 1.408616737846022815 1.408617013038732102 1.412522066128298226 1.2851591921737641755 0.65105919410439372363 0.98751602833152873906 1.0434186052368878972 1.0282207812723711537 1.025837766178346433 1.0258377095605524243 1.0282208298377775169 1.0434185649242033733 0.98751602899659196577 0.94052591455588774316 1.1236366664007368943 1.0945652713691753632 1.0832822421122454415 1.0832823411982575035 1.0945651866627130744 1.123636732187184073 0.94052590296014881854 0.85717827986960215547 1.1813149460231857635 1.1649550405719177881 1.1446067170187186335 1.1446066859147143724 1.1649550693985863958 1.1813149350996721143 0.85717828794304429252 0.77384592864377932386 1.207560203953055078 1.2197825490441296381 1.195844321307177438 1.195844368479765718 1.2197825071040706568 1.2075602089219432678 0.77384593639035637036 0.70069378915959046328 1.2054659670602765331 1.2525903324234046732 1.230927292220294289 1.2309271972595101641 1.2525904129759319883 1.205465893198633065 0.70069376182665910058 0.64520939184908876474 1.1908423274869663899 1.2731268476322095129 1.2592130787795505764 1.2592130190504162712 1.2731268934268504811 1.1908422899900303893 0.64520940629183320958 0.61157592190569876056 1.1735795317388522108 1.2767985858994321813 1.2689934145007530919 1.268993391512091673 1.2767985769543674923 1.1735794859018959801 0.6115759020455719952 0.59189811183167628794 1.1613482846187026531 1.2851589354892438699 1.2857415016089914772 1.285741186398837721 1.2851592025065841085 1.1613481177343791817 0.59189810977480983301 0.93319935869840719977 0.98751602834461504887 0.97322689755786107035 0.97061801258446134266 0.97061801228233013372 0.9732268979506690787 0.98751602897242241053 0.93319935984463142642 0.7884734977667491318 0.94052591435008103815 0.91629878122836028176 0.90527166012823656605 0.90527164378731539429 0.91629879475019804236 0.94052590333352692475 0.78847349549811973635 0.61916363349952086015 0.85717828008400098749 0.84685809425521330063 0.8293020673859037295 0.82930207592265314798 0.84685808595489053818 0.85717828753904334871 0.61916363518192885085 0.49615641236635343869 0.77384592821115349981 0.78574094473053568422 0.7687096476958312774 0.76870966264417461833 0.78574093361630503729 0.77384593715743088538 0.49615642109191088194 0.41501786844281424171 0.70069378953041772107 0.73357493874247947652 0.72189072715765334465 0.72189066600070650459 0.73357499051621266606 0.70069376109760328486 0.41501786696501979934 0.36421983145083219879 0.64520939096953899838 0.69411225088700545527 0.68941675066039231901 0.68941677705338200166 0.69411222707376463159 0.64520940786328051519 0.36421983891759435181 0.33675161085122184979 0.61157592111365033372 0.66695581982650287145 0.66610603681571023404 0.66610600940997355401 0.66695583604191899241 0.61157590345314960523 0.3367516167113839276 0.32343760488360551175 0.59189810943152709743 0.65105917428010384729 0.6535127762399970397 0.65351275204680447928 0.65105918744464519321 0.59189811415414372853 0.32343760621117567666 
        </DataArray>
      </CellData>
      <Points>
        <DataArray Name="m" NumberOfComponents="3" type="Float32" format="ascii">
0 0 0 0.125 0 0 0.25 0 0 0.375 0 0 0.5 0 0 0.625 0 0 0.75 0 0 0.875 0 0 1 0 0 0 0.125 0 0.125 0.125 0 0.25 0.125 0 0.375 0.125 0 0.5 0.125 0 0.625 0.125 0 0.75 0.125 0 0.875 0.125 0 1 0.125 0 0 0.25 0 0.125 0.25 0 0.25 0.25 0 0.375 0.25 0 0.5 0.25 0 0.625 0.25 0 0.75 0.25 0 0.875 0.25 0 1 0.25 0 0 0.375 0 0.125 0.375 0 0.25 0.375 0 0.375 0.375 0 0.5 0.375 0 0.625 0.375 0 0.75 0.375 0 0.875 0.375 0 1 0.375 0 0 0.5 0 0.125 0.5 0 0.25 0.5 0 0.375 0.5 0 0.5 0.5 0 0.625 0.5 0 0.75 0.5 0 0.875 0.5 0 1 0.5 0 0 0.625 0 0.125 0.625 0 0.25 0.625 0 0.375 0.625 0 0.5 0.625 0 0.625 0.625 0 0.75 0.625 0 0.875 0.625 0 1 0.625 0 0 0.75 0 0.125 0.75 0 0.25 0.75 0 0.375 0.75 0 0.5 0.75 0 0.625 0.75 0 0.75 0.75 0 0.875 0.75 0 1 0.75 0 0 0.875 0 0.125 0.875 0 0.25 0.875 0 0.375 0.875 0 0.5 0.875 0 0.625 0.875 0 0.75 0.875 0 0.875 0.875 0 1 0.875 0 0 1 0 0.125 1 0 0.25 1 0 0.375 1 0 0.5 1 0 0.625 1 0 0.75 1 0 0.875 1 0 1 1 0 0 0 0.125 0.125 0 0.125 0.25 0 0.125 0.375 0 0.125 0.5 0 0.125 0.625 0 0.125 0.75 0 0.125 0.875 0 0.125 1 0 0.125 0 0.125 0.125 0.125 0.125 0.125 0.25 0.125 0.125 0.375 0.125 0.125 0.5 0.125 0.125 0.625 0.125 0.125 0.75 0.125 0.125 0.875 0.125 0.125 1 0.125 0.125 0 0.25 0.125 0.125 0.25 0.125 0.25 0.25 0.125 0.375 0.25 0.125 0.5 0.25 0.125 0.625 0.25 0.125 0.75 0.25 0.125 0.875 0.25 0.125 1 0.25 0.125 0 0.375 0.125 0.125 0.375 0.125 0.25 0.375 0.125 0.375 0.375 0.125 0.5 0.375 0.125 0.625 0.375 0.125 0.75 0.375 0.125 0.875 0.375 0.125 1 0.375 0.125 0 0.5 0.125 0.125 0.5 0.125 0.25 0.5 0.125 0.375 0.5 0.125 0.5 0.5 0.125 0.625 0.5 0.125 0.75 0.5 0.125 0.875 0.5 0.125 1 0.5 0.125 0 0.625 0.125 0.125 0.625 0.125 0.25 0.625 0.125 0.375 0.625 0.125 0.5 0.625 0.125 0.625 0.625 0.125 0.75 0.625 0.125 0.875 0.625 0.125 1 0.625 0.125 0 0.75 0.125 0.125 0.75 0.125 0.25 0.75 0.125 0.375 0.75 0.125 0.5 0.75 0.125 0.625 0.75 0.125 0.75 0.75 0.125 0.875 0.75 0.125 1 0.75 0.125 0 0.875 0.125 0.125 0.875 0.125 0.25 0.875 0.125 0.375 0.875 0.125 0.5 0.875 0.125 0.625 0.875 0.125 0.75 0.875 0.125 0.875 0.875 0.125 1 0.875 0.125 0 1 0.125 0.125 1 0.125 0.25 1 0.125 0.375 1 0.125 0.5 1 0.125 0.625 1 0.125 0.75 1 0.125 0.875 1 0.125 1 1 0.125 0 0 0.25 0.125 0 0.25 0.25 0 0.25 0.375 0 0.25 0.5 0 0.25 0.625 0 0.25 0.75 0 0.25 0.875 0 0.25 1 0 0.25 0 0.125 0.25 0.125 0.125 0.25 0.25 0.125 0.25 0.375 0.125 0.25 0.5 0.125 0.25 0.625 0.125 0.25 0.75 0.125 0.25 0.875 0.125 0.25 1 0.125 0.25 0 0.25 0.25 0.125 0.25 0.25 0.25 0.25 0.25 0.375 0.25 0.25 0.5 0.25 0.25 0.625 0.25 0.25 0.75 0.25 0.25 0.875 0.25 0.25 1 0.25 0.25 0 0.375 0.25 0.125 0.375 0.25 0.25 0.375 0.25 0.375 0.375 0.25 0.5 0.375 0.25 0.625 0.375 0.25 0.75 0.375 0.25 0.875 0.375 0.25 1 0.375 0.25 0 0.5 0.25 0.125 0.5 0.25 0.25 0.5 0.25 0.375 0.5 0.25 0.5 0.5 0.25 0.625 0.5 0.25 0.75 0.5 0.25 0.875 0.5 0.25 1 0.5 0.25 0 0.625 0.25 0.125 0.625 0.25 0.25 0.625 0.25 0.375 0.625 0.25 0.5 0.625 0.25 0.625 0.625 0.25 0.75 0.625 0.25 0.875 0.625 0.25 1 0.625 0.25 0 0.75 0.25 0.125 0.75 0.25 0.25 0.75 0.25 0.375 0.75 0.25 0.5 0.75 0.25 0.625 0.75 0.25 0.75 0.75 0.25 0.875 0.75 0.25 1 0.75 0.25 0 0.875 0.25 0.125 0.875 0.25 0.25 0.875 0.25 0.375 0.875 0.25 0.5 0.875 0.25 0.625 0.875 0.25 0.75 0.875 0.25 0.875 0.875 0.25 1 0.875 0.25 0 1 0.25 0.125 1 0.25 0.25 1 0.25 0.375 1 0.25 0.5 1 0.25 0.625 1 0.25 0.75 1 0.25 0.875 1 0.25 1 1 0.25 0 0 0.375 0.125 0 0.375 0.25 0 0.375 0.375 0 0.375 0.5 0 0.375 0.625 0 0.375 0.75 0 0.375 0.875 0 0.375 1 0 0.375 0 0.125 0.375 0.125 0.125 0.375 0.25 0.125 0.375 0.375 0.125 0.375 0.5 0.125 0.375 0.625 0.125 0.375 0.75 0.125 0.375 0.875 0.125 0.375 1 0.125 0.375 0 0.25 0.375 0.125 0.25 0.375 0.25 0.25 0.375 0.375 0.25 0.375 0.5 0.25 0.375 0.625 0.25 0.375 0.75 0.25 0.375 0.875 0.25 0.375 1 0.25 0.375 0 0.375 0.375 0.125 0.375 0.375 0.25 0.375 0.375 0.375 0.375 0.375 0.5 0.375 0.375 0.625 0.375 0.375 0.75 0.375 0.375 0.875 0.375 0.375 1 0.375 0.375 0 0.5 0.375 0.125 0.5 0.375 0.25 0.5 0.375 0.375 0.5 0.375 0.5 0.5 0.375 0.625 0.5 0.375 0.75 0.5 0.375 0.875 0.5 0.375 1 0.5 0.375 0 0.625 0.375 0.125 0.625 0.375 0.25 0.625 0.375 0.375 0.625 0.375 0.5 0.625 0.375 0.625 0.625 0.375 0.75 0.625 0.375 0.875 0.625 0.375 1 0.625 0.375 0 0.75 0.375 0.125 0.75 0.375 0.25 0.75 0.375 0.375 0.75 0.375 0.5 0.75 0.375 0.625 0.75 0.375 0.75 0.75 0.375 0.875 0.75 0.375 1 0.75 0.375 0 0.875 0.375 0.125 0.875 0.375 0.25 0.875 0.375 0.375 0.875 0.375 0.5 0.875 0.375 0.625 0.875 0.375 0.75 0.875 0.375 0.875 0.875 0.375 1 0.875 0.375 0 1 0.375 0.125 1 0.375 0.25 1 0.375 0.375 1 0.375 0.5 1 0.375 0.625 1 0.375 0.75 1 0.375 0.875 1 0.375 1 1 0.375 0 0 0.5 0.125 0 0.5 0.25 0 0.5 0.375 0 0.5 0.5 0 0.5 0.625 0 0.5 0.75 0 0.5 0.875 0 0.5 1 0 0.5 0 0.125 0.5 0.125 0.125 0.5 0.25 0.125 0.5 0.375 0.125 0.5 0.5 0.125 0.5 0.625 0.125 0.5 0.75 0.125 0.5 0.875 0.125 0.5 1 0.125 0.5 0 0.25 0.5 0.125 0.25 0.5 0.25 0.25 0.5 0.375 0.25 0.5 0.5 0.25 0.5 0.625 0.25 0.5 0.75 0.25 0.5 0.875 0.25 0.5 1 0.25 0.5 0 0.375 0.5 0.125 0.375 0.5 0.25 0.375 0.5 0.375 0.375 0.5 0.5 0.375 0.5 0.625 0.375 0.5 0.75 0.375 0.5 0.875 0.375 0.5 1 0.375 0.5 0 0.5 0.5 0.125 0.5 0.5 0.25 0.5 0.5 0.375 0.5 0.5 0.5 0.5 0.5 0.625 0.5 0.5 0.75 0.5 0.5 0.875 0.5 0.5 1 0.5 0.5 0 0.625 0.5 0.125 0.625 0.5 0.25 0.625 0.5 0.375 0.625 0.5 0.5 0.625 0.5 0.625 0.625 0.5 0.75 0.625 0.5 0.875 0.625 0.5 1 0.625 0.5 0 0.75 0.5 0.125 0.75 0.5 0.25 0.75 0.5 0.375 0.75 0.5 0.5 0.75 0.5 0.625 0.75 0.5 0.75 0.75 0.5 0.875 0.75 0.5 1 0.75 0.5 0 0.875 0.5 0.125 0.875 0.5 0.25 0.875 0.5 0.375 0.875 0.5 0.5 0.875 0.5 0.625 0.875 0.5 0.75 0.875 0.5 0.875 0.875 0.5 1 0.875 0.5 0 1 0.5 0.125 1 0.5 0.25 1 0.5 0.375 1 0.5 0.5 1 0.5 0.625 1 0.5 0.75 1 0.5 0.875 1 0.5 1 1 0.5 0 0 0.625 0.125 0 0.625 0.25 0 0.625 0.375 0 0.625 0.5 0 0.625 0.625 0 0.625 0.75 0 0.625 0.875 0 0.625 1 0 0.625 0 0.125 0.625 0.125 0.125 0.625 0.25 0.125 0.625 0.375 0.125 0.625 0.5 0.125 0.625 0.625 0.125 0.625 0.75 0.125 0.625 0.875 0.125 0.625 1 0.125 0.625 0 0.25 0.625 0.125 0.25 0.625 0.25 0.25 0.625 0.375 0.25 0.625 0.5 0.25 0.625 0.625 0.25 0.625 0.75 0.25 0.625 0.875 0.25 0.625 1 0.25 0.625 0 0.375 0.625 0.125 0.375 0.625 0.25 0.375 0.625 0.375 0.375 0.625 0.5 0.375 0.625 0.625 0.375 0.625 0.75 0.375 0.625 0.875 0.375 0.625 1 0.375 0.625 0 0.5 0.625 0.125 0.5 0.625 0.25 0.5 0.625 0.375 0.5 0.625 0.5 0.5 0.625 0.625 0.5 0.625 0.75 0.5 0.625 0.875 0.5 0.625 1 0.5 0.625 0 0.625 0.625 0.125 0.625 0.625 0.25 0.625 0.625 0.375 0.625 0.625 0.5 0.625 0.625 0.625 0.625 0.625 0.75 0.625 0.625 0.875 0.625 0.625 1 0.625 0.625 0 0.75 0.625 0.125 0.75 0.625 0.25 0.75 0.625 0.375 0.75 0.625 0.5 0.75 0.625 0.625 0.75 0.625 0.75 0.75 0.625 0.875 0.75 0.625 1 0.75 0.625 0 0.875 0.625 0.125 0.875 0.625 0.25 0.875 0.625 0.375 0.875 0.625 0.5 0.875 0.625 0.625 0.875 0.625 0.75 0.875 0.625 0.875 0.875 0.625 1 0.875 0.625 0 1 0.625 0.125 1 0.625 0.25 1 0.625 0.375 1 0.625 0.5 1 0.625 0.625 1 0.625 0.75 1 0.625 0.875 1 0.625 1 1 0.625 0 0 0.75 0.125 0 0.75 0.25 0 0.75 0.375 0 0.75 0.5 0 0.75 0.625 0 0.75 0.75 0 0.75 0.875 0 0.75 1 0 0.75 0 0.125 0.75 0.125 0.125 0.75 0.25 0.125 0.75 0.375 0.125 0.75 0.5 0.125 0.75 0.625 0.125 0.75 0.75 0.125 0.75 0.875 0.125 0.75 1 0.125 0.75 0 0.25 0.75 0.125 0.25 0.75 0.25 0.25 0.75 0.375 0.25 0.75 0.5 0.25 0.75 0.625 0.25 0.75 0.75 0.25 0.75 0.875 0.25 0.75 1 0.25 0.75 0 0.375 0.75 0.125 0.375 0.75 0.25 0.375 0.75 0.375 0.375 0.75 0.5 0.375 0.75 0.625 0.375 0.75 0.75 0.375 0.75 0.875 0.375 0.75 1 0.375 0.75 0 0.5 0.75 0.125 0.5 0.75 0.25 0.5 0.75 0.375 0.5 0.75 0.5 0.5 0.75 0.625 0.5 0.75 0.75 0.5 0.75 0.875 0.5 0.75 1 0.5 0.75 0 0.625 0.75 0.125 0.625 0.75 0.25 0.625 0.75 0.375 0.625 0.75 0.5 0.625 0.75 0.625 0.625 0.75 0.75 0.625 0.75 0.875 0.625 0.75 1 0.625 0.75 0 0.75 0.75 0.125 0.75 0.75 0.25 0.75 0.75 0.375 0.75 0.75 0.5 0.75 0.75 0.625 0.75 0.75 0.75 0.75 0.75 0.875 0.75 0.75 1 0.75 0.75 0 0.875 0.75 0.125 0.875 0.75 0.25 0.875 0.75 0.375 0.875 0.75 0.5 0.875 0.75 0.625 0.875 0.75 0.75 0.875 0.75 0.875 0.875 0.75 1 0.875 0.75 0 1 0.75 0.125 1 0.75 0.25 1 0.75 0.375 1 0.75 0.5 1 0.75 0.625 1 0.75 0.75 1 0.75 0.875 1 0.75 1 1 0.75 0 0 0.875 0.125 0 0.875 0.25 0 0.875 0.375 0 0.875 0.5 0 0.875 0.625 0 0.875 0.75 0 0.875 0.875 0 0.875 1 0 0.875 0 0.125 0.875 0.125 0.125 0.875 0.25 0.125 0.875 0.375 0.125 0.875 0.5 0.125 0.875 0.625 0.125 0.875 0.75 0.125 0.875 0.875 0.125 0.875 1 0.125 0.875 0 0.25 0.875 0.125 0.25 0.875 0.25 0.25 0.875 0.375 0.25 0.875 0.5 0.25 0.875 0.625 0.25 0.875 0.75 0.25 0.875 0.875 0.25 0.875 1 0.25 0.875 0 0.375 0.875 0.125 0.375 0.875 0.25 0.375 0.875 0.375 0.375 0.875 0.5 0.375 0.875 0.625 0.375 0.875 0.75 0.375 0.875 0.875 0.375 0.875 1 0.375 0.875 0 0.5 0.875 0.125 0.5 0.875 0.25 0.5 0.875 0.375 0.5 0.875 0.5 0.5 0.875 0.625 0.5 0.875 0.75 0.5 0.875 0.875 0.5 0.875 1 0.5 0.875 0 0.625 0.875 0.125 0.625 0.875 0.25 0.625 0.875 0.375 0.625 0.875 0.5 0.625 0.875 0.625 0.625 0.875 0.75 0.625 0.875 0.875 0.625 0.875 1 0.625 0.875 0 0.75 0.875 0.125 0.75 0.875 0.25 0.75 0.875 0.375 0.75 0.875 0.5 0.75 0.875 0.625 0.75 0.875 0.75 0.75 0.875 0.875 0.75 0.875 1 0.75 0.875 0 0.875 0.875 0.125 0.875 0.875 0.25 0.875 0.875 0.375 0.875 0.875 0.5 0.875 0.875 0.625 0.875 0.875 0.75 0.875 0.875 0.875 0.875 0.875 1 0.875 0.875 0 1 0.875 0.125 1 0.875 0.25 1 0.875 0.375 1 0.875 0.5 1 0.875 0.625 1 0.875 0.75 1 0.875 0.875 1 0.875 1 1 0.875 0 0 1 0.125 0 1 0.25 0 1 0.375 0 1 0.5 0 1 0.625 0 1 0.75 0 1 0.875 0 1 1 0 1 0 0.125 1 0.125 0.125 1 0.25 0.125 1 0.375 0.125 1 0.5 0.125 1 0.625 0.125 1 0.75 0.125 1 0.875 0.125 1 1 0.125 1 0 0.25 1 0.125 0.25 1 0.25 0.25 1 0.375 0.25 1 0.5 0.25 1 0.625 0.25 1 0.75 0.25 1 0.875 0.25 1 1 0.25 1 0 0.375 1 0.125 0.375 1 0.25 0.375 1 0.375 0.375 1 0.5 0.375 1 0.625 0.375 1 0.75 0.375 1 0.875 0.375 1 1 0.375 1 0 0.5 1 0.125 0.5 1 0.25 0.5 1 0.375 0.5 1 0.5 0.5 1 0.625 0.5 1 0.75 0.5 1 0.875 0.5 1 1 0.5 1 0 0.625 1 0.125 0.625 1 0.25 0.625 1 0.375 0.625 1 0.5 0.625 1 0.625 0.625 1 0.75 0.625 1 0.875 0.625 1 1 0.625 1 0 0.75 1 0.125 0.75 1 0.25 0.75 1 0.375 0.75 1 0.5 0.75 1 0.625 0.75 1 0.75 0.75 1 0.875 0.75 1 1 0.75 1 0 0.875 1 0.125 0.875 1 0.25 0.875 1 0.375 0.875 1 0.5 0.875 1 0.625 0.875 1 0.75 0.875 1 0.875 0.875 1 1 0.875 1 0 1 1 0.125 1 1 0.25 1 1 0.375 1 1 0.5 1 1 0.625 1 1 0.75 1 1 0.875 1 1 1 1 1         </DataArray>
      </Points>
    </Piece>
  </StructuredGrid>
</VTKFile>
