<?xml version="1.0"?>
<VTKFile type="StructuredGrid" version="0.1" byte_order="LittleEndian">
  <StructuredGrid WholeExtent="0 8 0 8 0 8">
    <Piece Extent="0 8 0 8 0 8">
      <PointData>
      </PointData>
      <CellData>
        <DataArray Name="vy" NumberOfComponents="1" type="Float32" format="ascii">
0.93318976759821459233 0.98752545672961411505 0.97324507925618652937 0.97064088289422001399 0.97064088816164051376 0.9732450749303925841 0.98752545905363564582 0.93318976667053954444 0.78830906650090559751 0.94036252477272797012 0.91620937179802963701 0.90523481696557805964 0.90523482166164148666 0.91620936775251338169 0.94036252813819698471 0.78830906639194386898 0.61896070028650485018 0.85701780100085456215 0.84681640601901553289 0.82937814448561675285 0.82937814334425352669 0.8468164079344630002 0.85701779959335977477 0.61896070182037277174 0.49558877544294988038 0.77329279743764456345 0.78542732315441088353 0.76862894129631498252 0.76862894607105980427 0.78542731983854985334 0.77329280169361402919 0.49558877447276822314 0.41413929543770711117 0.69992643040371582686 0.733172861272069043 0.72190785787372035998 0.72190784838483035291 0.73317287045867651774 0.69992642443303654254 0.41413929418733413934 0.36287099454457893977 0.64440739549620207338 0.69387995388462608837 0.68966550972550377807 0.6896655513265049775 0.69387992387795760507 0.64440742330332856369 0.36287099707245512592 0.33273285183394085696 0.60674150775019086712 0.66420326249195416057 0.66514467882533545584 0.66514467633948626268 0.66420327298251025105 0.60674150751114097613 0.33273285414292524953 0.31810899879457127382 0.58599562842873320623 0.64767269559932272305 0.65240453586025293209 0.65240458054613936767 0.64767266758827413131 0.58599566048453799461 0.31810899300453099325 0.98752545672849301184 1.0434540095631084089 1.0282581577989449162 1.0258753243611182793 1.0258753447298252226 1.0282581402276294025 1.0434540250834198893 0.9875254590542991151 0.94036252477169457453 1.123490540525622583 1.0945107739869583963 1.0832822259205232562 1.0832821707513144993 1.0945108203585560691 1.1234905065895630649 0.94036252813865384148 0.85701780100735625023 1.1811966964707338867 1.16497402945131312 1.1447493796185279624 1.1447494368107589136 1.1649739816700506179 1.1811967250698520715 0.85701779959022150734 0.7732927974335424004 1.2069958961382465379 1.2195614636983687085 1.1958996254402007864 1.1958995687466689173 1.2195615129748056393 1.2069958661454367466 0.77329280169833136682 0.69992643041076452182 1.2046599624234761716 1.2523275416158967666 1.2312753032834760081 1.2312753361541504127 1.2523275118623027335 1.2046599944738605181 0.69992642443302721666 0.64440739548832215444 1.1904546936182616168 1.2730418615236469559 1.2595323545361309936 1.2595323752984766141 1.2730418511111583069 1.1904547164218797217 0.64440742331130829168 0.60674150772937751608 1.1692392039252645919 1.2757678646586574356 1.2700992563218103104 1.2700992993161996925 1.2757678355309918228 1.1692392254720462841 0.60674150752536748499 0.58599562841209185127 1.1561480183062251559 1.2839843976757454591 1.2882706421468730351 1.2882705810740857633 1.283984472040123892 1.1561479997453874002 0.58599566049371432097 0.97324507926064063312 1.0282581578235998609 1.013062067378616149 1.010575321621240974 1.0105752994709424897 1.0130620866861328455 1.0282581402139296944 0.97324507492803791209 0.91620937180171324599 1.0945107739568225025 1.0652215988172706318 1.0537422119423411893 1.0537422900770669898 1.065221532983700925 1.0945108203759292831 0.91620936775038541722 0.8468164060216141209 1.1649740295042527727 1.1470398130395900171 1.1265158746562347059 1.1265157824525999786 1.1470398896979028258 1.1649739816395976444 0.8468164079333588834 0.7854273231852725301 1.2195614636778298046 1.2285761997386397404 1.2040933061027743189 1.2040933969996310271 1.2285761217020869651 1.219561512984406848 0.78542731982338265251 0.73317286130301584368 1.2523275416416588257 1.2958666684026616256 1.2729798106424292659 1.2729797762128063354 1.2958667024385008837 1.252327511848779773 0.73317287044775192317 0.69387995395751733696 1.2730418615969076868 1.3532240792848215793 1.3368385357110257328 1.3368385312729169634 1.3532240786554579071 1.2730418510771275287 0.69387992384584473715 0.66420326258042683421 1.2757678646900305619 1.3831469998324412707 1.3740941697851827286 1.3740941046904495693 1.3831470522677624668 1.2757678355296766526 0.66420327294545267183 0.64767269573348318357 1.2839843978368605804 1.4176233927854897665 1.4185213151762716688 1.4185214487355191082 1.4176232658706686696 1.283984471975026187 0.64767266752683561037 0.97064088288732541798 1.0258753243020894974 1.0105753216611153 1.0080978079650166901 1.0080978337734938233 1.0105752994499501707 1.025875344765061703 0.97064088816631033385 0.90523481696585994527 1.0832822260018675209 1.0537422118842294516 1.0420511822442783956 1.0420510885133758006 1.0537422901099104955 1.0832821707052657789 0.90523482166143309779 0.82937814448985536231 1.1447493794983814031 1.1265158747440260356 1.1055369491414912542 1.1055370610471348947 1.1265157824041525103 1.1447494368794997044 0.82937814334098469704 0.76862894128565706353 1.1958996255248617313 1.2040933059912797276 1.179223012173101548 1.1792229060684882302 1.2040933970470550918 1.1958995686839384298 0.76862894607534215652 0.72190785787734812473 1.2312753032641270412 1.2729798106557186355 1.24991118997789874 1.2499112248917290113 1.2729797761842114312 1.2312753361518575801 0.7219078483902489074 0.68966550970782869445 1.2595323544936292137 1.3368385356994165747 1.3202719189352110085 1.3202719318774920332 1.3368385312697250722 1.2595323753264460187 0.68966555135605633886 0.66514467883996886144 1.2700992565316180372 1.3740941695843627013 1.364725573127359759 1.3647256573666677326 1.3740941048217680809 1.2700992992373780766 0.66514467637566787594 0.65240453580549206958 1.28827064219827081 1.4185213150234816659 1.4186958441398334063 1.4186957169312666149 1.418521448876759683 1.2882705811296266685 0.65240458064159079221 0.97064088817218951988 1.0258753448250286233 1.010575299395661375 1.0080978338157315921 1.0080978079424400828 1.0105753216660728899 1.0258753243086815576 0.97064088288896432921 0.90523482166418889339 1.0832821706284476715 1.0537422901828414901 1.0420510884642741889 1.0420511822721689743 1.0537422118820392036 1.0832822259904519857 0.90523481696406238317 0.82937814335032622459 1.1447494370098696415 1.1265157822597486881 1.105537061166798285 1.1055369490753417239 1.1265158747672519013 1.1447493795054588528 0.82937814448100721787 0.76862894610621035341 1.1958995686022864113 1.2040933971571290417 1.1792229059748071673 1.1792230122109434998 1.2040933059941900662 1.1958996255082063875 0.76862894127301550906 0.72190784844590916158 1.2312753362125470336 1.2729797761025278824 1.2499112249551331821 1.2499111899190402664 1.2729798106802769908 1.2312753032359093908 0.72190785784217648136 0.68966555144362140517 1.2595323754316414266 1.3368385312332391468 1.3202719319343112492 1.3202719188893634605 1.3368385357223899756 1.2595323544602274879 0.68966550967144546469 0.66514467647248465276 1.2700992991676109956 1.3740941050390285127 1.364725657272838566 1.3647255731893925823 1.3740941696058948107 1.2700992564384760986 0.6651446787842431041 0.65240458086485064726 1.2882705813619845792 1.4185214490338617921 1.4186957170158673858 1.41869584413452543 1.4185213150713018582 1.2882706420563574401 0.65240453573169343571 0.97324507492211564941 1.0282581401134629484 1.0130620867934947427 1.0105752993746583979 1.0105753217059365578 1.0130620673182797464 1.0282581578641367681 0.97324507926105452427 0.91620936775077388425 1.0945108205167008997 1.0652215328272098827 1.0537422902157196347 1.0537422118239616609 1.0652215989064202084 1.0945107738970742961 0.91620937179920158844 0.84681640793990886618 1.1649739814340844823 1.1470398899514668845 1.1265157822112528141 1.1265158748549946033 1.1470398128951309058 1.1649740295859747352 0.84681640601577479188 0.78542731983788394157 1.2195615131651862395 1.2285761214570034561 1.2040933972045397837 1.2040933058826825963 1.2285761998730306832 1.2195614635896872002 0.78542732315317853597 0.73317287045841861293 1.252327511838405405 1.2958667025445533838 1.2729797760740375612 1.2729798106936711655 1.2958666683364732375 1.2523275416288379702 0.73317286126754854791 0.69387992385912333759 1.2730418510784071717 1.3532240786992382198 1.336838531229989524 1.3368385357107253064 1.3532240792605478852 1.2730418615397989246 0.69387995388590706369 0.66420327299452130987 1.2757678358936741514 1.3831470518605097908 1.3740941051700901188 1.3740941694048209865 1.3831470000741115101 1.2757678644467806972 0.66420326247124672481 0.64767266745909157777 1.2839844720971389513 1.4176232655509266589 1.4185214491750146593 1.418521314918425924 1.4176233929953778734 1.2839843976379385904 0.6476726956550077352 0.98752545905736077714 1.0434540252033372987 1.0282581400997603538 1.0258753448602369041 1.0258753242496243541 1.0282581578887883822 1.0434540094947095668 0.98752545672744584948 0.94036252814680898471 1.1234905064198068558 1.0945108205340841057 1.0832821705824915437 1.0832822260718895091 1.0945107738669483943 1.1234905406220951907 0.94036252476785175958 0.85701779959823798372 1.1811967253048392124 1.1649739814036184082 1.1447494370784687678 1.1447493793851701849 1.1649740296389006211 1.1811966963377233952 0.85701780099729596429 0.77329280174650572022 1.2069958660079942447 1.2195615131747896687 1.1958995685395523711 1.1958996255928631136 1.2195614635691509609 1.206995896218025166 0.77329279740374157193 0.69992642447234865166 1.2046599944866664966 1.2523275118248968774 1.2312753362106232391 1.231275303216929462 1.2523275416546153505 1.2046599624129119555 0.69992643036955259905 0.64440742341444878782 1.1904547166439058969 1.2730418510443601843 1.2595323754593763521 1.2595323544174923391 1.2730418616130447784 1.1904546934753097442 0.64440739540962888032 0.6067415076108199079 1.1692392253555639048 1.2757678358923643103 1.2700992990880006772 1.2700992566474951229 1.2757678644781602628 1.1692392039568051398 0.60674150765701884147 0.585995660718796052 1.1561480001440325172 1.2839844720322521887 1.2882705814174022496 1.2882706421076348668 1.2839843977992650981 1.1561480180245784499 0.58599562824661255434 0.93318976666611874737 0.98752545905802591175 0.97324507491976142148 0.97064088817685212351 0.97064088288206284982 0.97324507926550873904 0.98752545672632596752 0.93318976760072569476 0.78830906640136100272 0.94036252814726450922 0.91620936774864825125 0.9052348216639988232 0.90523481696436314259 0.9162093718028876399 0.94036252476681680967 0.78830906649509879802 0.61896070181429818646 0.85701779959510593354 0.84681640793880741391 0.82937814334702986141 0.82937814448521751665 0.84681640601837571136 0.85701780100380342553 0.61896070028765692861 0.49558877452087329862 0.7732928017512352703 0.7854273198227255115 0.76862894611050547322 0.76862894126236980252 0.78542732318404817615 0.77329279739965117724 0.49558877541015694534 0.41413929418638306679 0.69992642447236730341 0.73317287044754531067 0.72190784845144551074 0.72190785784592148566 0.73317286129854608578 0.69992643037662982675 0.41413929542744892798 0.36287099713805037737 0.64440742342251011721 0.69387992382713103989 0.68966555147317376573 0.68966550965377160232 0.69387995395891854944 0.64440739540183156198 0.36287099448979576177 0.33273285416811537729 0.60674150762515377533 0.66420327295759384878 0.66514467650863318138 0.66514467879884409118 0.66420326255984984964 0.60674150763631307104 0.3327328517945633557 0.31810899303501877222 0.58599566072808140227 0.64767266739784712382 0.65240458096063647098 0.65240453567726830464 0.64767269578936159657 0.58599562823008022328 0.31810899874512277297 
        </DataArray>
      </CellData>
      <Points>
        <DataArray Name="m" NumberOfComponents="3" type="Float32" format="ascii">
0 0 0 0.125 0 0 0.25 0 0 0.375 0 0 0.5 0 0 0.625 0 0 0.75 0 0 0.875 0 0 1 0 0 0 0.125 0 0.125 0.125 0 0.25 0.125 0 0.375 0.125 0 0.5 0.125 0 0.625 0.125 0 0.75 0.125 0 0.875 0.125 0 1 0.125 0 0 0.25 0 0.125 0.25 0 0.25 0.25 0 0.375 0.25 0 0.5 0.25 0 0.625 0.25 0 0.75 0.25 0 0.875 0.25 0 1 0.25 0 0 0.375 0 0.125 0.375 0 0.25 0.375 0 0.375 0.375 0 0.5 0.375 0 0.625 0.375 0 0.75 0.375 0 0.875 0.375 0 1 0.375 0 0 0.5 0 0.125 0.5 0 0.25 0.5 0 0.375 0.5 0 0.5 0.5 0 0.625 0.5 0 0.75 0.5 0 0.875 0.5 0 1 0.5 0 0 0.625 0 0.125 0.625 0 0.25 0.625 0 0.375 0.625 0 0.5 0.625 0 0.625 0.625 0 0.75 0.625 0 0.875 0.625 0 1 0.625 0 0 0.75 0 0.125 0.75 0 0.25 0.75 0 0.375 0.75 0 0.5 0.75 0 0.625 0.75 0 0.75 0.75 0 0.875 0.75 0 1 0.75 0 0 0.875 0 0.125 0.875 0 0.25 0.875 0 0.375 0.875 0 0.5 0.875 0 0.625 0.875 0 0.75 0.875 0 0.875 0.875 0 1 0.875 0 0 1 0 0.125 1 0 0.25 1 0 0.375 1 0 0.5 1 0 0.625 1 0 0.75 1 0 0.875 1 0 1 1 0 0 0 0.125 0.125 0 0.125 0.25 0 0.125 0.375 0 0.125 0.5 0 0.125 0.625 0 0.125 0.75 0 0.125 0.875 0 0.125 1 0 0.125 0 0.125 0.125 0.125 0.125 0.125 0.25 0.125 0.125 0.375 0.125 0.125 0.5 0.125 0.125 0.625 0.125 0.125 0.75 0.125 0.125 0.875 0.125 0.125 1 0.125 0.125 0 0.25 0.125 0.125 0.25 0.125 0.25 0.25 0.125 0.375 0.25 0.125 0.5 0.25 0.125 0.625 0.25 0.125 0.75 0.25 0.125 0.875 0.25 0.125 1 0.25 0.125 0 0.375 0.125 0.125 0.375 0.125 0.25 0.375 0.125 0.375 0.375 0.125 0.5 0.375 0.125 0.625 0.375 0.125 0.75 0.375 0.125 0.875 0.375 0.125 1 0.375 0.125 0 0.5 0.125 0.125 0.5 0.125 0.25 0.5 0.125 0.375 0.5 0.125 0.5 0.5 0.125 0.625 0.5 0.125 0.75 0.5 0.125 0.875 0.5 0.125 1 0.5 0.125 0 0.625 0.125 0.125 0.625 0.125 0.25 0.625 0.125 0.375 0.625 0.125 0.5 0.625 0.125 0.625 0.625 0.125 0.75 0.625 0.125 0.875 0.625 0.125 1 0.625 0.125 0 0.75 0.125 0.125 0.75 0.125 0.25 0.75 0.125 0.375 0.75 0.125 0.5 0.75 0.125 0.625 0.75 0.125 0.75 0.75 0.125 0.875 0.75 0.125 1 0.75 0.125 0 0.875 0.125 0.125 0.875 0.125 0.25 0.875 0.125 0.375 0.875 0.125 0.5 0.875 0.125 0.625 0.875 0.125 0.75 0.875 0.125 0.875 0.875 0.125 1 0.875 0.125 0 1 0.125 0.125 1 0.125 0.25 1 0.125 0.375 1 0.125 0.5 1 0.125 0.625 1 0.125 0.75 1 0.125 0.875 1 0.125 1 1 0.125 0 0 0.25 0.125 0 0.25 0.25 0 0.25 0.375 0 0.25 0.5 0 0.25 0.625 0 0.25 0.75 0 0.25 0.875 0 0.25 1 0 0.25 0 0.125 0.25 0.125 0.125 0.25 0.25 0.125 0.25 0.375 0.125 0.25 0.5 0.125 0.25 0.625 0.125 0.25 0.75 0.125 0.25 0.875 0.125 0.25 1 0.125 0.25 0 0.25 0.25 0.125 0.25 0.25 0.25 0.25 0.25 0.375 0.25 0.25 0.5 0.25 0.25 0.625 0.25 0.25 0.75 0.25 0.25 0.875 0.25 0.25 1 0.25 0.25 0 0.375 0.25 0.125 0.375 0.25 0.25 0.375 0.25 0.375 0.375 0.25 0.5 0.375 0.25 0.625 0.375 0.25 0.75 0.375 0.25 0.875 0.375 0.25 1 0.375 0.25 0 0.5 0.25 0.125 0.5 0.25 0.25 0.5 0.25 0.375 0.5 0.25 0.5 0.5 0.25 0.625 0.5 0.25 0.75 0.5 0.25 0.875 0.5 0.25 1 0.5 0.25 0 0.625 0.25 0.125 0.625 0.25 0.25 0.625 0.25 0.375 0.625 0.25 0.5 0.625 0.25 0.625 0.625 0.25 0.75 0.625 0.25 0.875 0.625 0.25 1 0.625 0.25 0 0.75 0.25 0.125 0.75 0.25 0.25 0.75 0.25 0.375 0.75 0.25 0.5 0.75 0.25 0.625 0.75 0.25 0.75 0.75 0.25 0.875 0.75 0.25 1 0.75 0.25 0 0.875 0.25 0.125 0.875 0.25 0.25 0.875 0.25 0.375 0.875 0.25 0.5 0.875 0.25 0.625 0.875 0.25 0.75 0.875 0.25 0.875 0.875 0.25 1 0.875 0.25 0 1 0.25 0.125 1 0.25 0.25 1 0.25 0.375 1 0.25 0.5 1 0.25 0.625 1 0.25 0.75 1 0.25 0.875 1 0.25 1 1 0.25 0 0 0.375 0.125 0 0.375 0.25 0 0.375 0.375 0 0.375 0.5 0 0.375 0.625 0 0.375 0.75 0 0.375 0.875 0 0.375 1 0 0.375 0 0.125 0.375 0.125 0.125 0.375 0.25 0.125 0.375 0.375 0.125 0.375 0.5 0.125 0.375 0.625 0.125 0.375 0.75 0.125 0.375 0.875 0.125 0.375 1 0.125 0.375 0 0.25 0.375 0.125 0.25 0.375 0.25 0.25 0.375 0.375 0.25 0.375 0.5 0.25 0.375 0.625 0.25 0.375 0.75 0.25 0.375 0.875 0.25 0.375 1 0.25 0.375 0 0.375 0.375 0.125 0.375 0.375 0.25 0.375 0.375 0.375 0.375 0.375 0.5 0.375 0.375 0.625 0.375 0.375 0.75 0.375 0.375 0.875 0.375 0.375 1 0.375 0.375 0 0.5 0.375 0.125 0.5 0.375 0.25 0.5 0.375 0.375 0.5 0.375 0.5 0.5 0.375 0.625 0.5 0.375 0.75 0.5 0.375 0.875 0.5 0.375 1 0.5 0.375 0 0.625 0.375 0.125 0.625 0.375 0.25 0.625 0.375 0.375 0.625 0.375 0.5 0.625 0.375 0.625 0.625 0.375 0.75 0.625 0.375 0.875 0.625 0.375 1 0.625 0.375 0 0.75 0.375 0.125 0.75 0.375 0.25 0.75 0.375 0.375 0.75 0.375 0.5 0.75 0.375 0.625 0.75 0.375 0.75 0.75 0.375 0.875 0.75 0.375 1 0.75 0.375 0 0.875 0.375 0.125 0.875 0.375 0.25 0.875 0.375 0.375 0.875 0.375 0.5 0.875 0.375 0.625 0.875 0.375 0.75 0.875 0.375 0.875 0.875 0.375 1 0.875 0.375 0 1 0.375 0.125 1 0.375 0.25 1 0.375 0.375 1 0.375 0.5 1 0.375 0.625 1 0.375 0.75 1 0.375 0.875 1 0.375 1 1 0.375 0 0 0.5 0.125 0 0.5 0.25 0 0.5 0.375 0 0.5 0.5 0 0.5 0.625 0 0.5 0.75 0 0.5 0.875 0 0.5 1 0 0.5 0 0.125 0.5 0.125 0.125 0.5 0.25 0.125 0.5 0.375 0.125 0.5 0.5 0.125 0.5 0.625 0.125 0.5 0.75 0.125 0.5 0.875 0.125 0.5 1 0.125 0.5 0 0.25 0.5 0.125 0.25 0.5 0.25 0.25 0.5 0.375 0.25 0.5 0.5 0.25 0.5 0.625 0.25 0.5 0.75 0.25 0.5 0.875 0.25 0.5 1 0.25 0.5 0 0.375 0.5 0.125 0.375 0.5 0.25 0.375 0.5 0.375 0.375 0.5 0.5 0.375 0.5 0.625 0.375 0.5 0.75 0.375 0.5 0.875 0.375 0.5 1 0.375 0.5 0 0.5 0.5 0.125 0.5 0.5 0.25 0.5 0.5 0.375 0.5 0.5 0.5 0.5 0.5 0.625 0.5 0.5 0.75 0.5 0.5 0.875 0.5 0.5 1 0.5 0.5 0 0.625 0.5 0.125 0.625 0.5 0.25 0.625 0.5 0.375 0.625 0.5 0.5 0.625 0.5 0.625 0.625 0.5 0.75 0.625 0.5 0.875 0.625 0.5 1 0.625 0.5 0 0.75 0.5 0.125 0.75 0.5 0.25 0.75 0.5 0.375 0.75 0.5 0.5 0.75 0.5 0.625 0.75 0.5 0.75 0.75 0.5 0.875 0.75 0.5 1 0.75 0.5 0 0.875 0.5 0.125 0.875 0.5 0.25 0.875 0.5 0.375 0.875 0.5 0.5 0.875 0.5 0.625 0.875 0.5 0.75 0.875 0.5 0.875 0.875 0.5 1 0.875 0.5 0 1 0.5 0.125 1 0.5 0.25 1 0.5 0.375 1 0.5 0.5 1 0.5 0.625 1 0.5 0.75 1 0.5 0.875 1 0.5 1 1 0.5 0 0 0.625 0.125 0 0.625 0.25 0 0.625 0.375 0 0.625 0.5 0 0.625 0.625 0 0.625 0.75 0 0.625 0.875 0 0.625 1 0 0.625 0 0.125 0.625 0.125 0.125 0.625 0.25 0.125 0.625 0.375 0.125 0.625 0.5 0.125 0.625 0.625 0.125 0.625 0.75 0.125 0.625 0.875 0.125 0.625 1 0.125 0.625 0 0.25 0.625 0.125 0.25 0.625 0.25 0.25 0.625 0.375 0.25 0.625 0.5 0.25 0.625 0.625 0.25 0.625 0.75 0.25 0.625 0.875 0.25 0.625 1 0.25 0.625 0 0.375 0.625 0.125 0.375 0.625 0.25 0.375 0.625 0.375 0.375 0.625 0.5 0.375 0.625 0.625 0.375 0.625 0.75 0.375 0.625 0.875 0.375 0.625 1 0.375 0.625 0 0.5 0.625 0.125 0.5 0.625 0.25 0.5 0.625 0.375 0.5 0.625 0.5 0.5 0.625 0.625 0.5 0.625 0.75 0.5 0.625 0.875 0.5 0.625 1 0.5 0.625 0 0.625 0.625 0.125 0.625 0.625 0.25 0.625 0.625 0.375 0.625 0.625 0.5 0.625 0.625 0.625 0.625 0.625 0.75 0.625 0.625 0.875 0.625 0.625 1 0.625 0.625 0 0.75 0.625 0.125 0.75 0.625 0.25 0.75 0.625 0.375 0.75 0.625 0.5 0.75 0.625 0.625 0.75 0.625 0.75 0.75 0.625 0.875 0.75 0.625 1 0.75 0.625 0 0.875 0.625 0.125 0.875 0.625 0.25 0.875 0.625 0.375 0.875 0.625 0.5 0.875 0.625 0.625 0.875 0.625 0.75 0.875 0.625 0.875 0.875 0.625 1 0.875 0.625 0 1 0.625 0.125 1 0.625 0.25 1 0.625 0.375 1 0.625 0.5 1 0.625 0.625 1 0.625 0.75 1 0.625 0.875 1 0.625 1 1 0.625 0 0 0.75 0.125 0 0.75 0.25 0 0.75 0.375 0 0.75 0.5 0 0.75 0.625 0 0.75 0.75 0 0.75 0.875 0 0.75 1 0 0.75 0 0.125 0.75 0.125 0.125 0.75 0.25 0.125 0.75 0.375 0.125 0.75 0.5 0.125 0.75 0.625 0.125 0.75 0.75 0.125 0.75 0.875 0.125 0.75 1 0.125 0.75 0 0.25 0.75 0.125 0.25 0.75 0.25 0.25 0.75 0.375 0.25 0.75 0.5 0.25 0.75 0.625 0.25 0.75 0.75 0.25 0.75 0.875 0.25 0.75 1 0.25 0.75 0 0.375 0.75 0.125 0.375 0.75 0.25 0.375 0.75 0.375 0.375 0.75 0.5 0.375 0.75 0.625 0.375 0.75 0.75 0.375 0.75 0.875 0.375 0.75 1 0.375 0.75 0 0.5 0.75 0.125 0.5 0.75 0.25 0.5 0.75 0.375 0.5 0.75 0.5 0.5 0.75 0.625 0.5 0.75 0.75 0.5 0.75 0.875 0.5 0.75 1 0.5 0.75 0 0.625 0.75 0.125 0.625 0.75 0.25 0.625 0.75 0.375 0.625 0.75 0.5 0.625 0.75 0.625 0.625 0.75 0.75 0.625 0.75 0.875 0.625 0.75 1 0.625 0.75 0 0.75 0.75 0.125 0.75 0.75 0.25 0.75 0.75 0.375 0.75 0.75 0.5 0.75 0.75 0.625 0.75 0.75 0.75 0.75 0.75 0.875 0.75 0.75 1 0.75 0.75 0 0.875 0.75 0.125 0.875 0.75 0.25 0.875 0.75 0.375 0.875 0.75 0.5 0.875 0.75 0.625 0.875 0.75 0.75 0.875 0.75 0.875 0.875 0.75 1 0.875 0.75 0 1 0.75 0.125 1 0.75 0.25 1 0.75 0.375 1 0.75 0.5 1 0.75 0.625 1 0.75 0.75 1 0.75 0.875 1 0.75 1 1 0.75 0 0 0.875 0.125 0 0.875 0.25 0 0.875 0.375 0 0.875 0.5 0 0.875 0.625 0 0.875 0.75 0 0.875 0.875 0 0.875 1 0 0.875 0 0.125 0.875 0.125 0.125 0.875 0.25 0.125 0.875 0.375 0.125 0.875 0.5 0.125 0.875 0.625 0.125 0.875 0.75 0.125 0.875 0.875 0.125 0.875 1 0.125 0.875 0 0.25 0.875 0.125 0.25 0.875 0.25 0.25 0.875 0.375 0.25 0.875 0.5 0.25 0.875 0.625 0.25 0.875 0.75 0.25 0.875 0.875 0.25 0.875 1 0.25 0.875 0 0.375 0.875 0.125 0.375 0.875 0.25 0.375 0.875 0.375 0.375 0.875 0.5 0.375 0.875 0.625 0.375 0.875 0.75 0.375 0.875 0.875 0.375 0.875 1 0.375 0.875 0 0.5 0.875 0.125 0.5 0.875 0.25 0.5 0.875 0.375 0.5 0.875 0.5 0.5 0.875 0.625 0.5 0.875 0.75 0.5 0.875 0.875 0.5 0.875 1 0.5 0.875 0 0.625 0.875 0.125 0.625 0.875 0.25 0.625 0.875 0.375 0.625 0.875 0.5 0.625 0.875 0.625 0.625 0.875 0.75 0.625 0.875 0.875 0.625 0.875 1 0.625 0.875 0 0.75 0.875 0.125 0.75 0.875 0.25 0.75 0.875 0.375 0.75 0.875 0.5 0.75 0.875 0.625 0.75 0.875 0.75 0.75 0.875 0.875 0.75 0.875 1 0.75 0.875 0 0.875 0.875 0.125 0.875 0.875 0.25 0.875 0.875 0.375 0.875 0.875 0.5 0.875 0.875 0.625 0.875 0.875 0.75 0.875 0.875 0.875 0.875 0.875 1 0.875 0.875 0 1 0.875 0.125 1 0.875 0.25 1 0.875 0.375 1 0.875 0.5 1 0.875 0.625 1 0.875 0.75 1 0.875 0.875 1 0.875 1 1 0.875 0 0 1 0.125 0 1 0.25 0 1 0.375 0 1 0.5 0 1 0.625 0 1 0.75 0 1 0.875 0 1 1 0 1 0 0.125 1 0.125 0.125 1 0.25 0.125 1 0.375 0.125 1 0.5 0.125 1 0.625 0.125 1 0.75 0.125 1 0.875 0.125 1 1 0.125 1 0 0.25 1 0.125 0.25 1 0.25 0.25 1 0.375 0.25 1 0.5 0.25 1 0.625 0.25 1 0.75 0.25 1 0.875 0.25 1 1 0.25 1 0 0.375 1 0.125 0.375 1 0.25 0.375 1 0.375 0.375 1 0.5 0.375 1 0.625 0.375 1 0.75 0.375 1 0.875 0.375 1 1 0.375 1 0 0.5 1 0.125 0.5 1 0.25 0.5 1 0.375 0.5 1 0.5 0.5 1 0.625 0.5 1 0.75 0.5 1 0.875 0.5 1 1 0.5 1 0 0.625 1 0.125 0.625 1 0.25 0.625 1 0.375 0.625 1 0.5 0.625 1 0.625 0.625 1 0.75 0.625 1 0.875 0.625 1 1 0.625 1 0 0.75 1 0.125 0.75 1 0.25 0.75 1 0.375 0.75 1 0.5 0.75 1 0.625 0.75 1 0.75 0.75 1 0.875 0.75 1 1 0.75 1 0 0.875 1 0.125 0.875 1 0.25 0.875 1 0.375 0.875 1 0.5 0.875 1 0.625 0.875 1 0.75 0.875 1 0.875 0.875 1 1 0.875 1 0 1 1 0.125 1 1 0.25 1 1 0.375 1 1 0.5 1 1 0.625 1 1 0.75 1 1 0.875 1 1 1 1 1         </DataArray>
      </Points>
    </Piece>
  </StructuredGrid>
</VTKFile>
