<?xml version="1.0"?>
<VTKFile type="StructuredGrid" version="0.1" byte_order="LittleEndian">
  <StructuredGrid WholeExtent="0 8 0 8 0 8">
    <Piece Extent="0 8 0 8 0 8">
      <PointData>
      </PointData>
      <CellData>
        <DataArray Name="vy" NumberOfComponents="1" type="Float32" format="ascii">
0.49250008673616679777 0.77051190305076977527 0.7699983095154694368 0.74962775844906881506 0.74962807400374875666 0.76999804500972424126 0.77051212615222386404 0.49250014860925994675 0.46393830021958498699 0.74881929321499751673 0.75445946025255850031 0.73496254546721984102 0.73496279966613509149 0.75445924881934245398 0.74881948487891458743 0.46393836096086582543 0.42023779291660467994 0.7113434942162066843 0.72912181980724588559 0.71338074819263386228 0.71338097454093607475 0.72912163791620288045 0.71134366380303182265 0.42023783601946024246 0.38407588509197149174 0.67419467439455493807 0.7052033900766858654 0.69454839051658134874 0.69454849616823433056 0.70520330819747067963 0.67419477306645336778 0.38407592139701446365 0.35391184055877816794 0.6384890372189271357 0.68146380361426173167 0.67623111392776846795 0.6762312840401619729 0.68146367064656199197 0.63848915114222859479 0.35391186325619261588 0.33226186192187151525 0.61020364206489585701 0.66277612855245049417 0.66271626114960213716 0.66271627513969255663 0.66277612600545643406 0.61020366728346686624 0.3322618696662426041 0.31967889551420636263 0.59234766629261148552 0.6486158265533267242 0.65101561861846657386 0.65101566334390348345 0.64861579890574472262 0.59234770712273721038 0.31967890012651350995 0.31228131704123524015 0.58004472781160720807 0.63926373747941200865 0.64398304225383584676 0.64398313933828499334 0.6392636652067831271 0.58004477329287007503 0.3122813126346290491 0.77051190274706649053 1.2308676064867432043 1.2355670577408803812 1.207421392204381716 1.2074228207944017743 1.2355658247369576408 1.2308686318813248928 0.77051212634381971434 0.74881929298738503231 1.2326321961476027766 1.2465304198196902608 1.2184397977792444934 1.2184408741248851094 1.2465294898499967857 1.2326330028400553918 0.74881948502274253698 0.7113434940536944584 1.228540234676998022 1.2605411080156101455 1.2352103745405857982 1.2352111528754332603 1.260540448391810342 1.2285408448873307297 0.71134366390925118928 0.67419467440577540707 1.2190577861627456269 1.2729844835581349827 1.2522312815045857359 1.2522318867235020523 1.2729839715271600298 1.2190582897391486483 0.67419477306585373633 0.63848903719956107139 1.201682520451834435 1.2788060696914160808 1.2641369896641221349 1.2641373456132658504 1.2788057826692129648 1.2016828183131214036 0.63848915116509397105 0.61020364221175116271 1.1837760028272070745 1.2839583634971789561 1.2775217937907883403 1.2775220733166332554 1.2839581454998088006 1.1837762233800359635 0.61020366719558838398 0.59234766631415558535 1.1670057719501842897 1.280285552808701599 1.2794414752328688856 1.2794416630243727884 1.2802854223770980813 1.167005956927058552 0.59234770711681905553 0.58004472821563290985 1.1555805451089096181 1.2844590849706336577 1.2909314422745674644 1.2909316391151215431 1.2844589205640093432 1.1555806679733886533 0.58004477304472445987 0.76999830952048498034 1.2355670551518103117 1.2350688896957924268 1.203615058701203111 1.2036133901663457202 1.2350703416933059842 1.2355658263736666314 0.76999804500016255648 0.75445946010564290951 1.2465304177527178897 1.2561238078082759273 1.2247215889771227992 1.2247203978675029745 1.2561248504603170772 1.2465294911530486743 0.7544592489062857954 0.7291218196871405155 1.2605411061716951249 1.2898697905588247803 1.2615112482521360082 1.2615104414623303786 1.2898704870911272824 1.2605404495564078715 0.72912163799159923627 0.70520338968778928379 1.2729844825693987787 1.3256548338640783413 1.3019929232974885025 1.301992346847108406 1.3256553356176603575 1.2729839721444102807 0.70520330844840140028 0.68146380356037439263 1.2788060684940476541 1.3561635866582433252 1.3384361966990918624 1.3384358937637692577 1.3561638386073391338 1.2788057834401176382 0.68146367069735258593 0.66277612805576346933 1.2839583634663636058 1.3868490249884122267 1.377282094083868369 1.3772817752070052322 1.3868492810646413371 1.2839581455426714029 0.66277612633985316659 0.64861582671456774474 1.2802855519782931903 1.3990659388604715918 1.3954976071982776453 1.3954976344568945645 1.3990658924544521202 1.2802854229322870871 0.64861579882117115226 0.63926373638926858867 1.2844590863444733664 1.4214704842547487562 1.424715543617640412 1.4247154559868548951 1.4214705617195857457 1.2844589197213687193 0.63926366593449568398 0.74962775908185097506 1.2074213994772546865 1.203615053957012071 1.1704650604731867691 1.1704669619712331219 1.2036133931847365908 1.2074228161656401781 0.74962807359574479271 0.73496254632364244053 1.2184398036245231989 1.2247215853882089664 1.1915160548341363622 1.1915174036488918041 1.2247204001457738798 1.2184408704006595148 0.73496279910927164725 0.71338074884190827429 1.2352103797238978 1.2615112451851009379 1.2315404760037387266 1.231541406633565483 1.2615104434131727551 1.2352111495730111468 0.71338097412277279297 0.69454839144984492627 1.2522312842888785323 1.3019929219391497277 1.2770466352881673089 1.2770472998210706805 1.3019923476525041561 1.2522318849019877796 0.69454849555883391155 0.67623111412335989989 1.2641369927965264708 1.3384361950555310194 1.3197176548061837487 1.3197180250165938542 1.338435894761153433 1.2641373435979648132 0.67623128393908893408 0.66271626210566048076 1.2775217939107115228 1.3772820945054038422 1.3668596753216455397 1.3668600845117071518 1.3772817749686079303 1.2775220733078984647 0.66271627457472603862 0.65101561818053166331 1.2794414773336535429 1.3954976061386785702 1.3911907239864684804 1.3911907277019832652 1.395497635148136073 1.2794416617394246405 0.65101566367889274201 0.64398304434591902012 1.2909314385454269125 1.424715547455551734 1.4269985178277648785 1.4269986299365671201 1.42471545347404982 1.2909316415404037404 0.64398313808341844933 0.74962807274855713935 1.2074228093467813672 1.2036133999007643247 1.170466955734629444 1.1704650644441740859 1.2036150525098159303 1.2074213994773257408 0.74962775924368107994 0.73496279815227028021 1.2184408649749025599 1.2247204051742444086 1.1915173989763228057 1.1915160578044918793 1.2247215843257039936 1.2184398035778167824 0.73496254641672464913 0.71338097344609785466 1.2352111448640392677 1.2615104476738199235 1.2315414027242368444 1.2315404784920349623 1.2615112442911158297 1.2352103796193654173 0.71338074887628943888 0.69454849471619029 1.2522318823890157269 1.3019923495061882512 1.2770472979533467051 1.2770466364190020681 1.3019929215343688522 1.2522312841908389558 0.69454839141609248099 0.6762312837282267175 1.2641373407479807867 1.3384358970820615653 1.3197180227651239548 1.3197176561834376152 1.3384361945112848158 1.2641369927244041627 0.67623111413079983745 0.6627162737431029349 1.2775220732359962028 1.3772817746021266405 1.3668600845726599502 1.3668596753006236888 1.3772820944917207875 1.2775217938689624741 0.6627162620639382995 0.65101566403282296047 1.27944165977531088 1.3954976369423737204 1.3911907258851070601 1.3911907251470430058 1.3954976055859082962 1.2794414773189104473 0.65101561820891751253 0.64398313639160287281 1.2909316451380146162 1.4247154481104760126 1.4269986342030513971 1.4269985150137165508 1.4247155485275193598 1.2909314384044723312 0.64398304421025776012 0.76999804669036842064 1.2355658371129289996 1.2350703302885930324 1.2036134029291443159 1.203615047775644209 1.2350688969343044388 1.2355670498600810348 0.76999830843623817689 0.75445925072099473407 1.2465294997099873875 1.2561248419655566266 1.2247204074606414803 1.224721580744940308 1.2561238131813028396 1.2465304135316914724 0.75445945902420652462 0.72912163923100847818 1.2605404570880760495 1.2898704798157207829 1.2615104496330453721 1.2615112412324787083 1.2898697951523234728 1.260541102456154583 0.72912181895379746255 0.70520330972224842814 1.2729839759926528941 1.3256553326739364262 1.3019923503195676151 1.3019929201840216848 1.3256548356771125086 1.2729844806901866594 0.70520338908299939895 0.68146367080442793451 1.278805787868401822 1.3561638345957702789 1.3384358980813726436 1.3384361928696553168 1.3561635891613657012 1.2788060663533100669 0.68146380349553425937 0.66277612732554858077 1.2839581450552086661 1.3868492821801667869 1.3772817743613960939 1.3772820949109214617 1.3868490242317272898 1.2839583637469422772 0.66277612766996052418 0.64861579779623179665 1.2802854256138973543 1.3990658893773140203 1.3954976376344638833 1.3954976045271449969 1.399065940731121005 1.2802855506653900708 0.64861582723061439459 0.63926366831850722772 1.2844589128445431658 1.4214705717084159531 1.4247154456038018111 1.4247155523715449021 1.4214704777050790607 1.2844590898413552615 0.63926373549845405542 0.77051212483827224986 1.2308686198182816618 1.2355658387583390301 1.2074228047453490209 1.2074214067774711179 1.2355670472797464221 1.2308676141556744721 0.77051190388614221316 0.74881948327576308699 1.2326329927872252679 1.2465295010209160864 1.2184408612718022891 1.218439809444173072 1.2465304114726243334 1.2326322025225615597 0.74881929422561366305 0.71134366254869996204 1.2285408357049980577 1.2605404582595460816 1.2352111415806366068 1.2352103848216602344 1.2605411006191342693 1.2285402404967231682 0.71134349500036186953 0.67419477145833262011 1.2190582843165438387 1.2729839766150963243 1.2522318805877585834 1.2522312869953713399 1.2729844797066587336 1.2190577895895302607 0.6741946754014017662 0.63848915064891165194 1.2016828124959328949 1.2788057886418460196 1.264137338737909122 1.2641369958620272129 1.2788060651584900462 1.2016825241422040005 0.63848903750806096369 0.61020366580669649359 1.1837762228594330693 1.2839581450992632039 1.2775220732144285662 1.2775217939760370456 1.2839583637173213049 1.1837760030966459901 0.61020364295633700014 0.59234770753717624903 1.1670059530681879956 1.2802854261705576278 1.2794416584847030371 1.2794414794140325231 1.2802855498364473785 1.1670057743533603922 0.59234766599864840941 0.58004477044732882796 1.1555806732808129311 1.2844589120055280862 1.2909316475763092935 1.2909314346883500324 1.2844590912188160736 1.1555805416907625194 0.58004472965375220017 0.49250014897362537347 0.77051212503111476959 0.76999804668687865661 0.74962807235565664943 0.74962775989157115486 0.76999830844732508606 0.77051190358368992772 0.4925000865044590892 0.46393836108544350694 0.74881948342067183866 0.75445925081328457651 0.73496279760759741784 0.73496254728533882972 0.75445945888263843404 0.7488192939990842012 0.46393830013252479461 0.42023783580143525551 0.7113436626555934561 0.72912163931031437336 0.71338097303735470422 0.71338074953498165076 0.7291218188376040743 0.71134349483852521434 0.42023779304267094847 0.38407592119680300513 0.67419477145825035258 0.70520330997614633084 0.69454849411435759521 0.69454839235692167332 0.70520338869707355212 0.674194675413138933 0.38407588519851054709 0.35391186282994130385 0.63848915067288447567 0.68146367085773096317 0.67623128362944451286 0.67623111432867943904 0.68146380344415979913 0.63848903748980223583 0.35391184080414556101 0.33226186962176484929 0.61020366571973527758 0.66277612766097249164 0.6627162731757171299 0.66271626301757347033 0.66277612717430167688 0.61020364310410946107 0.33226186190405171406 0.31967889982657254899 0.59234770753124166287 0.64861579771070843048 0.65101566436840019314 0.65101561777157079813 0.64861582739090550831 0.59234766602017518977 0.31967889568351898211 0.31228131343955850552 0.58004477019855971154 0.63926366904579579042 0.64398313514453409123 0.64398304631014224864 0.63926373440788797353 0.58004473005715295741 0.31228131654985996635 
        </DataArray>
      </CellData>
      <Points>
        <DataArray Name="m" NumberOfComponents="3" type="Float32" format="ascii">
0 0 0 0.125 0 0 0.25 0 0 0.375 0 0 0.5 0 0 0.625 0 0 0.75 0 0 0.875 0 0 1 0 0 0 0.125 0 0.125 0.125 0 0.25 0.125 0 0.375 0.125 0 0.5 0.125 0 0.625 0.125 0 0.75 0.125 0 0.875 0.125 0 1 0.125 0 0 0.25 0 0.125 0.25 0 0.25 0.25 0 0.375 0.25 0 0.5 0.25 0 0.625 0.25 0 0.75 0.25 0 0.875 0.25 0 1 0.25 0 0 0.375 0 0.125 0.375 0 0.25 0.375 0 0.375 0.375 0 0.5 0.375 0 0.625 0.375 0 0.75 0.375 0 0.875 0.375 0 1 0.375 0 0 0.5 0 0.125 0.5 0 0.25 0.5 0 0.375 0.5 0 0.5 0.5 0 0.625 0.5 0 0.75 0.5 0 0.875 0.5 0 1 0.5 0 0 0.625 0 0.125 0.625 0 0.25 0.625 0 0.375 0.625 0 0.5 0.625 0 0.625 0.625 0 0.75 0.625 0 0.875 0.625 0 1 0.625 0 0 0.75 0 0.125 0.75 0 0.25 0.75 0 0.375 0.75 0 0.5 0.75 0 0.625 0.75 0 0.75 0.75 0 0.875 0.75 0 1 0.75 0 0 0.875 0 0.125 0.875 0 0.25 0.875 0 0.375 0.875 0 0.5 0.875 0 0.625 0.875 0 0.75 0.875 0 0.875 0.875 0 1 0.875 0 0 1 0 0.125 1 0 0.25 1 0 0.375 1 0 0.5 1 0 0.625 1 0 0.75 1 0 0.875 1 0 1 1 0 0 0 0.125 0.125 0 0.125 0.25 0 0.125 0.375 0 0.125 0.5 0 0.125 0.625 0 0.125 0.75 0 0.125 0.875 0 0.125 1 0 0.125 0 0.125 0.125 0.125 0.125 0.125 0.25 0.125 0.125 0.375 0.125 0.125 0.5 0.125 0.125 0.625 0.125 0.125 0.75 0.125 0.125 0.875 0.125 0.125 1 0.125 0.125 0 0.25 0.125 0.125 0.25 0.125 0.25 0.25 0.125 0.375 0.25 0.125 0.5 0.25 0.125 0.625 0.25 0.125 0.75 0.25 0.125 0.875 0.25 0.125 1 0.25 0.125 0 0.375 0.125 0.125 0.375 0.125 0.25 0.375 0.125 0.375 0.375 0.125 0.5 0.375 0.125 0.625 0.375 0.125 0.75 0.375 0.125 0.875 0.375 0.125 1 0.375 0.125 0 0.5 0.125 0.125 0.5 0.125 0.25 0.5 0.125 0.375 0.5 0.125 0.5 0.5 0.125 0.625 0.5 0.125 0.75 0.5 0.125 0.875 0.5 0.125 1 0.5 0.125 0 0.625 0.125 0.125 0.625 0.125 0.25 0.625 0.125 0.375 0.625 0.125 0.5 0.625 0.125 0.625 0.625 0.125 0.75 0.625 0.125 0.875 0.625 0.125 1 0.625 0.125 0 0.75 0.125 0.125 0.75 0.125 0.25 0.75 0.125 0.375 0.75 0.125 0.5 0.75 0.125 0.625 0.75 0.125 0.75 0.75 0.125 0.875 0.75 0.125 1 0.75 0.125 0 0.875 0.125 0.125 0.875 0.125 0.25 0.875 0.125 0.375 0.875 0.125 0.5 0.875 0.125 0.625 0.875 0.125 0.75 0.875 0.125 0.875 0.875 0.125 1 0.875 0.125 0 1 0.125 0.125 1 0.125 0.25 1 0.125 0.375 1 0.125 0.5 1 0.125 0.625 1 0.125 0.75 1 0.125 0.875 1 0.125 1 1 0.125 0 0 0.25 0.125 0 0.25 0.25 0 0.25 0.375 0 0.25 0.5 0 0.25 0.625 0 0.25 0.75 0 0.25 0.875 0 0.25 1 0 0.25 0 0.125 0.25 0.125 0.125 0.25 0.25 0.125 0.25 0.375 0.125 0.25 0.5 0.125 0.25 0.625 0.125 0.25 0.75 0.125 0.25 0.875 0.125 0.25 1 0.125 0.25 0 0.25 0.25 0.125 0.25 0.25 0.25 0.25 0.25 0.375 0.25 0.25 0.5 0.25 0.25 0.625 0.25 0.25 0.75 0.25 0.25 0.875 0.25 0.25 1 0.25 0.25 0 0.375 0.25 0.125 0.375 0.25 0.25 0.375 0.25 0.375 0.375 0.25 0.5 0.375 0.25 0.625 0.375 0.25 0.75 0.375 0.25 0.875 0.375 0.25 1 0.375 0.25 0 0.5 0.25 0.125 0.5 0.25 0.25 0.5 0.25 0.375 0.5 0.25 0.5 0.5 0.25 0.625 0.5 0.25 0.75 0.5 0.25 0.875 0.5 0.25 1 0.5 0.25 0 0.625 0.25 0.125 0.625 0.25 0.25 0.625 0.25 0.375 0.625 0.25 0.5 0.625 0.25 0.625 0.625 0.25 0.75 0.625 0.25 0.875 0.625 0.25 1 0.625 0.25 0 0.75 0.25 0.125 0.75 0.25 0.25 0.75 0.25 0.375 0.75 0.25 0.5 0.75 0.25 0.625 0.75 0.25 0.75 0.75 0.25 0.875 0.75 0.25 1 0.75 0.25 0 0.875 0.25 0.125 0.875 0.25 0.25 0.875 0.25 0.375 0.875 0.25 0.5 0.875 0.25 0.625 0.875 0.25 0.75 0.875 0.25 0.875 0.875 0.25 1 0.875 0.25 0 1 0.25 0.125 1 0.25 0.25 1 0.25 0.375 1 0.25 0.5 1 0.25 0.625 1 0.25 0.75 1 0.25 0.875 1 0.25 1 1 0.25 0 0 0.375 0.125 0 0.375 0.25 0 0.375 0.375 0 0.375 0.5 0 0.375 0.625 0 0.375 0.75 0 0.375 0.875 0 0.375 1 0 0.375 0 0.125 0.375 0.125 0.125 0.375 0.25 0.125 0.375 0.375 0.125 0.375 0.5 0.125 0.375 0.625 0.125 0.375 0.75 0.125 0.375 0.875 0.125 0.375 1 0.125 0.375 0 0.25 0.375 0.125 0.25 0.375 0.25 0.25 0.375 0.375 0.25 0.375 0.5 0.25 0.375 0.625 0.25 0.375 0.75 0.25 0.375 0.875 0.25 0.375 1 0.25 0.375 0 0.375 0.375 0.125 0.375 0.375 0.25 0.375 0.375 0.375 0.375 0.375 0.5 0.375 0.375 0.625 0.375 0.375 0.75 0.375 0.375 0.875 0.375 0.375 1 0.375 0.375 0 0.5 0.375 0.125 0.5 0.375 0.25 0.5 0.375 0.375 0.5 0.375 0.5 0.5 0.375 0.625 0.5 0.375 0.75 0.5 0.375 0.875 0.5 0.375 1 0.5 0.375 0 0.625 0.375 0.125 0.625 0.375 0.25 0.625 0.375 0.375 0.625 0.375 0.5 0.625 0.375 0.625 0.625 0.375 0.75 0.625 0.375 0.875 0.625 0.375 1 0.625 0.375 0 0.75 0.375 0.125 0.75 0.375 0.25 0.75 0.375 0.375 0.75 0.375 0.5 0.75 0.375 0.625 0.75 0.375 0.75 0.75 0.375 0.875 0.75 0.375 1 0.75 0.375 0 0.875 0.375 0.125 0.875 0.375 0.25 0.875 0.375 0.375 0.875 0.375 0.5 0.875 0.375 0.625 0.875 0.375 0.75 0.875 0.375 0.875 0.875 0.375 1 0.875 0.375 0 1 0.375 0.125 1 0.375 0.25 1 0.375 0.375 1 0.375 0.5 1 0.375 0.625 1 0.375 0.75 1 0.375 0.875 1 0.375 1 1 0.375 0 0 0.5 0.125 0 0.5 0.25 0 0.5 0.375 0 0.5 0.5 0 0.5 0.625 0 0.5 0.75 0 0.5 0.875 0 0.5 1 0 0.5 0 0.125 0.5 0.125 0.125 0.5 0.25 0.125 0.5 0.375 0.125 0.5 0.5 0.125 0.5 0.625 0.125 0.5 0.75 0.125 0.5 0.875 0.125 0.5 1 0.125 0.5 0 0.25 0.5 0.125 0.25 0.5 0.25 0.25 0.5 0.375 0.25 0.5 0.5 0.25 0.5 0.625 0.25 0.5 0.75 0.25 0.5 0.875 0.25 0.5 1 0.25 0.5 0 0.375 0.5 0.125 0.375 0.5 0.25 0.375 0.5 0.375 0.375 0.5 0.5 0.375 0.5 0.625 0.375 0.5 0.75 0.375 0.5 0.875 0.375 0.5 1 0.375 0.5 0 0.5 0.5 0.125 0.5 0.5 0.25 0.5 0.5 0.375 0.5 0.5 0.5 0.5 0.5 0.625 0.5 0.5 0.75 0.5 0.5 0.875 0.5 0.5 1 0.5 0.5 0 0.625 0.5 0.125 0.625 0.5 0.25 0.625 0.5 0.375 0.625 0.5 0.5 0.625 0.5 0.625 0.625 0.5 0.75 0.625 0.5 0.875 0.625 0.5 1 0.625 0.5 0 0.75 0.5 0.125 0.75 0.5 0.25 0.75 0.5 0.375 0.75 0.5 0.5 0.75 0.5 0.625 0.75 0.5 0.75 0.75 0.5 0.875 0.75 0.5 1 0.75 0.5 0 0.875 0.5 0.125 0.875 0.5 0.25 0.875 0.5 0.375 0.875 0.5 0.5 0.875 0.5 0.625 0.875 0.5 0.75 0.875 0.5 0.875 0.875 0.5 1 0.875 0.5 0 1 0.5 0.125 1 0.5 0.25 1 0.5 0.375 1 0.5 0.5 1 0.5 0.625 1 0.5 0.75 1 0.5 0.875 1 0.5 1 1 0.5 0 0 0.625 0.125 0 0.625 0.25 0 0.625 0.375 0 0.625 0.5 0 0.625 0.625 0 0.625 0.75 0 0.625 0.875 0 0.625 1 0 0.625 0 0.125 0.625 0.125 0.125 0.625 0.25 0.125 0.625 0.375 0.125 0.625 0.5 0.125 0.625 0.625 0.125 0.625 0.75 0.125 0.625 0.875 0.125 0.625 1 0.125 0.625 0 0.25 0.625 0.125 0.25 0.625 0.25 0.25 0.625 0.375 0.25 0.625 0.5 0.25 0.625 0.625 0.25 0.625 0.75 0.25 0.625 0.875 0.25 0.625 1 0.25 0.625 0 0.375 0.625 0.125 0.375 0.625 0.25 0.375 0.625 0.375 0.375 0.625 0.5 0.375 0.625 0.625 0.375 0.625 0.75 0.375 0.625 0.875 0.375 0.625 1 0.375 0.625 0 0.5 0.625 0.125 0.5 0.625 0.25 0.5 0.625 0.375 0.5 0.625 0.5 0.5 0.625 0.625 0.5 0.625 0.75 0.5 0.625 0.875 0.5 0.625 1 0.5 0.625 0 0.625 0.625 0.125 0.625 0.625 0.25 0.625 0.625 0.375 0.625 0.625 0.5 0.625 0.625 0.625 0.625 0.625 0.75 0.625 0.625 0.875 0.625 0.625 1 0.625 0.625 0 0.75 0.625 0.125 0.75 0.625 0.25 0.75 0.625 0.375 0.75 0.625 0.5 0.75 0.625 0.625 0.75 0.625 0.75 0.75 0.625 0.875 0.75 0.625 1 0.75 0.625 0 0.875 0.625 0.125 0.875 0.625 0.25 0.875 0.625 0.375 0.875 0.625 0.5 0.875 0.625 0.625 0.875 0.625 0.75 0.875 0.625 0.875 0.875 0.625 1 0.875 0.625 0 1 0.625 0.125 1 0.625 0.25 1 0.625 0.375 1 0.625 0.5 1 0.625 0.625 1 0.625 0.75 1 0.625 0.875 1 0.625 1 1 0.625 0 0 0.75 0.125 0 0.75 0.25 0 0.75 0.375 0 0.75 0.5 0 0.75 0.625 0 0.75 0.75 0 0.75 0.875 0 0.75 1 0 0.75 0 0.125 0.75 0.125 0.125 0.75 0.25 0.125 0.75 0.375 0.125 0.75 0.5 0.125 0.75 0.625 0.125 0.75 0.75 0.125 0.75 0.875 0.125 0.75 1 0.125 0.75 0 0.25 0.75 0.125 0.25 0.75 0.25 0.25 0.75 0.375 0.25 0.75 0.5 0.25 0.75 0.625 0.25 0.75 0.75 0.25 0.75 0.875 0.25 0.75 1 0.25 0.75 0 0.375 0.75 0.125 0.375 0.75 0.25 0.375 0.75 0.375 0.375 0.75 0.5 0.375 0.75 0.625 0.375 0.75 0.75 0.375 0.75 0.875 0.375 0.75 1 0.375 0.75 0 0.5 0.75 0.125 0.5 0.75 0.25 0.5 0.75 0.375 0.5 0.75 0.5 0.5 0.75 0.625 0.5 0.75 0.75 0.5 0.75 0.875 0.5 0.75 1 0.5 0.75 0 0.625 0.75 0.125 0.625 0.75 0.25 0.625 0.75 0.375 0.625 0.75 0.5 0.625 0.75 0.625 0.625 0.75 0.75 0.625 0.75 0.875 0.625 0.75 1 0.625 0.75 0 0.75 0.75 0.125 0.75 0.75 0.25 0.75 0.75 0.375 0.75 0.75 0.5 0.75 0.75 0.625 0.75 0.75 0.75 0.75 0.75 0.875 0.75 0.75 1 0.75 0.75 0 0.875 0.75 0.125 0.875 0.75 0.25 0.875 0.75 0.375 0.875 0.75 0.5 0.875 0.75 0.625 0.875 0.75 0.75 0.875 0.75 0.875 0.875 0.75 1 0.875 0.75 0 1 0.75 0.125 1 0.75 0.25 1 0.75 0.375 1 0.75 0.5 1 0.75 0.625 1 0.75 0.75 1 0.75 0.875 1 0.75 1 1 0.75 0 0 0.875 0.125 0 0.875 0.25 0 0.875 0.375 0 0.875 0.5 0 0.875 0.625 0 0.875 0.75 0 0.875 0.875 0 0.875 1 0 0.875 0 0.125 0.875 0.125 0.125 0.875 0.25 0.125 0.875 0.375 0.125 0.875 0.5 0.125 0.875 0.625 0.125 0.875 0.75 0.125 0.875 0.875 0.125 0.875 1 0.125 0.875 0 0.25 0.875 0.125 0.25 0.875 0.25 0.25 0.875 0.375 0.25 0.875 0.5 0.25 0.875 0.625 0.25 0.875 0.75 0.25 0.875 0.875 0.25 0.875 1 0.25 0.875 0 0.375 0.875 0.125 0.375 0.875 0.25 0.375 0.875 0.375 0.375 0.875 0.5 0.375 0.875 0.625 0.375 0.875 0.75 0.375 0.875 0.875 0.375 0.875 1 0.375 0.875 0 0.5 0.875 0.125 0.5 0.875 0.25 0.5 0.875 0.375 0.5 0.875 0.5 0.5 0.875 0.625 0.5 0.875 0.75 0.5 0.875 0.875 0.5 0.875 1 0.5 0.875 0 0.625 0.875 0.125 0.625 0.875 0.25 0.625 0.875 0.375 0.625 0.875 0.5 0.625 0.875 0.625 0.625 0.875 0.75 0.625 0.875 0.875 0.625 0.875 1 0.625 0.875 0 0.75 0.875 0.125 0.75 0.875 0.25 0.75 0.875 0.375 0.75 0.875 0.5 0.75 0.875 0.625 0.75 0.875 0.75 0.75 0.875 0.875 0.75 0.875 1 0.75 0.875 0 0.875 0.875 0.125 0.875 0.875 0.25 0.875 0.875 0.375 0.875 0.875 0.5 0.875 0.875 0.625 0.875 0.875 0.75 0.875 0.875 0.875 0.875 0.875 1 0.875 0.875 0 1 0.875 0.125 1 0.875 0.25 1 0.875 0.375 1 0.875 0.5 1 0.875 0.625 1 0.875 0.75 1 0.875 0.875 1 0.875 1 1 0.875 0 0 1 0.125 0 1 0.25 0 1 0.375 0 1 0.5 0 1 0.625 0 1 0.75 0 1 0.875 0 1 1 0 1 0 0.125 1 0.125 0.125 1 0.25 0.125 1 0.375 0.125 1 0.5 0.125 1 0.625 0.125 1 0.75 0.125 1 0.875 0.125 1 1 0.125 1 0 0.25 1 0.125 0.25 1 0.25 0.25 1 0.375 0.25 1 0.5 0.25 1 0.625 0.25 1 0.75 0.25 1 0.875 0.25 1 1 0.25 1 0 0.375 1 0.125 0.375 1 0.25 0.375 1 0.375 0.375 1 0.5 0.375 1 0.625 0.375 1 0.75 0.375 1 0.875 0.375 1 1 0.375 1 0 0.5 1 0.125 0.5 1 0.25 0.5 1 0.375 0.5 1 0.5 0.5 1 0.625 0.5 1 0.75 0.5 1 0.875 0.5 1 1 0.5 1 0 0.625 1 0.125 0.625 1 0.25 0.625 1 0.375 0.625 1 0.5 0.625 1 0.625 0.625 1 0.75 0.625 1 0.875 0.625 1 1 0.625 1 0 0.75 1 0.125 0.75 1 0.25 0.75 1 0.375 0.75 1 0.5 0.75 1 0.625 0.75 1 0.75 0.75 1 0.875 0.75 1 1 0.75 1 0 0.875 1 0.125 0.875 1 0.25 0.875 1 0.375 0.875 1 0.5 0.875 1 0.625 0.875 1 0.75 0.875 1 0.875 0.875 1 1 0.875 1 0 1 1 0.125 1 1 0.25 1 1 0.375 1 1 0.5 1 1 0.625 1 1 0.75 1 1 0.875 1 1 1 1 1         </DataArray>
      </Points>
    </Piece>
  </StructuredGrid>
</VTKFile>
