<?xml version="1.0"?>
<VTKFile type="StructuredGrid" version="0.1" byte_order="LittleEndian">
  <StructuredGrid WholeExtent="0 8 0 8 0 8">
    <Piece Extent="0 8 0 8 0 8">
      <PointData>
      </PointData>
      <CellData>
        <DataArray Name="vy" NumberOfComponents="1" type="Float32" format="ascii">
0.36400314082076756783 0.64431712285338660351 0.69124087005906520442 0.69281720723975648291 0.69281735252651088786 0.69124074726248396772 0.64431720983539797487 0.36400315634497143469 0.34971681553982864044 0.62898853800568055306 0.68027753300056226227 0.68338366512239412387 0.68338376011287738088 0.68027745144206586136 0.62898860227707076298 0.34971683609612275179 0.33455416526944969924 0.61124497182707981935 0.6671641903674034868 0.67194092428984242282 0.6719410641380312299 0.66716407008069855689 0.61124507037590247727 0.33455417795375436141 0.32339248816438831424 0.59700509089961240061 0.65649768450070211667 0.66267604299888260844 0.66267607395393191005 0.65649766471800796719 0.59700511806504463763 0.3233925128358516865 0.3133805758608243508 0.58376990797913452802 0.64585210158081840515 0.65324550578943629819 0.65324557426778739888 0.64585204619082525745 0.58376996115105916907 0.31338057372309408022 0.3063211518464594163 0.5742038356033287716 0.63838127658022625344 0.64692888934814252178 0.64692892503524257464 0.63838125799868894461 0.57420386036699710974 0.3063211680466877973 0.30281783697754049989 0.56841068631011948398 0.63205632787823040619 0.64083267975291646756 0.6408327149797055089 0.63205630822881853081 0.56841071159877076813 0.30281784019237512062 0.30118006839767530458 0.56507795459314691389 0.62852336340093772904 0.63768804669741196989 0.63768809577841367719 0.62852333893143852439 0.56507798467086334249 0.30118007378601757695 0.64431712282042741258 1.1698829869532461068 1.25474772186441208 1.2560490786698566001 1.2560500709070623326 1.2547468434234372303 1.1698837280851484 0.64431720987126672728 0.62898853798793841197 1.1659414253240492076 1.260220988058890601 1.2638509187967501557 1.2638517632452406225 1.260220234477496648 1.1659420664538227008 0.62898860229876851768 0.61124497183569437286 1.1590926302325668118 1.2644171838044553358 1.2708861301698881618 1.2708866171413180091 1.2644167585053716074 1.1590930030715504984 0.61124507037374209428 0.59700509089796005568 1.1531284468830258483 1.2685608321775148077 1.2777169374356753817 1.2777174049814392642 1.2685604243446491068 1.1531287974904671501 0.59700511807321754443 0.58376990803248529627 1.1453695979982956299 1.2697661395529376005 1.2815353400271745077 1.2815355074764274157 1.2697660102087255929 1.1453697263219180247 0.58376996111051315808 0.57420383559137622154 1.140185613873511139 1.2731506551006279704 1.2878539491872562639 1.287854166903156683 1.2731504790987531184 1.1401857831944546273 0.57420386038853599153 0.56841068637522762508 1.1338848734424851195 1.269877905371482596 1.2861272815090458721 1.2861274156832924742 1.2698778098796701386 1.1338849417960126242 0.568410711552046366 0.56507795445438580018 1.1319903839540539359 1.2743414165011506256 1.2938721597413043174 1.2938721434910871455 1.2743414513563715573 1.1319903888494748934 0.56507798481363802345 0.69124087006708556657 1.2547477210526807312 1.3443756269710660511 1.3452575627534342217 1.345256405448767234 1.3443766520033157974 1.2547468441841072018 0.69124074727277240449 0.68027753296905235647 1.2602209873150593822 1.3601990073278207305 1.3634537515080573655 1.3634527790364550093 1.3601998759169025011 1.2602202351765536825 0.68027745148810869757 0.66716419026009587956 1.2644171833537589666 1.3768057923630898642 1.3829993789325485398 1.3829988352938296092 1.3768062663808235957 1.2644167589361952064 0.66716407019615675544 0.65649768448439116408 1.2685608316596812539 1.3923449925312845199 1.4012381379397169656 1.4012376061167570729 1.3923454599138820331 1.2685604248384183546 0.65649766475137916188 0.64585210142645521625 1.2697661394822186143 1.4040593592828265468 1.4155977338053429282 1.4155975709115922179 1.4040594869751055196 1.2697660102939494209 0.6458520463538170997 0.63838127669131816688 1.2731506547040130073 1.4178300215173706977 1.4323870369015208048 1.4323868254835527836 1.4178301996721638378 1.2731504794890871057 0.63838125792412114823 0.6320563277072097641 1.2698779055983970832 1.4190244379858401036 1.4352736431607455714 1.4352734559435211814 1.4190245821589708708 1.2698778097068212922 0.6320563084192708514 0.62852336399055330762 1.2743414155182279934 1.432184223563184311 1.4519338076656269632 1.4519338773398815512 1.4321841566355633102 1.274341452306038347 0.62852333843350660647 0.6928172073452040225 1.2560490808466220347 1.3452575614033797091 1.3459741133232265842 1.3459754090794833203 1.3452564067242149815 1.2560500689740323743 0.69281735246717779386 0.68338366529939975624 1.26385092080680983 1.3634537502697361422 1.3665483988866014009 1.3665494763008425583 1.3634527802102240912 1.2638517614646704867 0.68338375998726696992 0.67194092459786658456 1.2708861314390691444 1.3829993782033056515 1.3890426870269401149 1.3890433026184225707 1.3829988359994445091 1.2708866160358738284 0.67194106389022600911 0.66267604308132543878 1.2777169388278117879 1.4012381370991071616 1.4099411780312776088 1.4099417788113011163 1.4012376069229950382 1.2777174037598002521 0.66267607391274230277 0.65324550610897669234 1.2815353402234601621 1.4155977338250116393 1.4268947007931918058 1.4268949069604435209 1.4155975709234469573 1.2815355073467471492 0.65324557401179961236 0.64692888914695445557 1.2878539501955037494 1.4323870363184629806 1.4466141850866738316 1.4466144393165429882 1.4323868260454695189 1.2878541660310989236 0.64692892526593992475 0.64083268014632810416 1.286127280946677276 1.4352736437413167181 1.4511589470500787513 1.451159195169970495 1.4352734554485575558 1.2861274162718596692 0.64083271468135727389 0.63768804555669389433 1.2938721623956974671 1.4519338056271309245 1.471079572794705026 1.4710795128197657888 1.4519338792718805564 1.2938721411630527136 0.63768809690760430708 0.69281735242296282884 1.2560500675741161913 1.3452564084434213143 1.3459754072292111626 1.3459741150548103494 1.3452575600769489661 1.256049081779904375 0.69281720737563134982 0.68338375991217359395 1.2638517601904897258 1.3634527817821870954 1.3665494746286743766 1.3665484004560566333 1.3634537490596665421 1.2638509216540392277 0.68338366534627781324 0.67194106374206219456 1.2708866152737918753 1.3829988369629406808 1.3890433015907930336 1.3890426880047452851 1.3829993774667321826 1.2708861319389515021 0.67194092469061761363 0.66267607388941618396 1.2777174029053206539 1.4012376080153261526 1.4099417776709983752 1.4099411791113243275 1.4012381362589310108 1.277716939396153828 0.66267604309495331538 0.65324557385452974856 1.2815355072790872715 1.4155975710551707003 1.4268949067983234258 1.4268947009704022744 1.4155977337246914427 1.2815353402621036949 0.65324550620729526784 0.64692892539517532491 1.2878541653653095 1.4323868268869928144 1.4466144384314616467 1.4466141859236500977 1.4323870356608352505 1.2878539506559580907 0.64692888906487167056 0.6408327144737571146 1.2861274166848468692 1.4352734549341272796 1.4511591956848544083 1.4511589466101464385 1.4352736441444333693 1.2861272806669457047 0.64083268027863904415 0.63768809757336908373 1.2938721393361560796 1.4519338817887972315 1.4710795101844802435 1.4710795752658172297 1.4519338036743403286 1.2938721636632357637 0.63768804513161281289 0.69124074748449704231 1.2547468472434701869 1.3443766484716581644 1.345256409718860402 1.3452575587269024471 1.3443756302445488693 1.2547477184174666842 0.69124086988633781647 0.68027745176907516989 1.2602202380117466518 1.360199872678137023 1.3634527829559499601 1.3634537478213517581 1.3601990103359624662 1.260220984874246053 0.680277532732509016 0.66716407060206384116 1.2644167606470642085 1.3768062645375587216 1.3829988376685509177 1.3829993767374939573 1.3768057940951312634 1.2644171818945804109 0.66716418992052650694 0.65649766480618365616 1.2685604267850629778 1.3923454576891298728 1.401237608821559899 1.4012381354183243154 1.3923449946160075807 1.2685608299918598174 0.65649768445069422995 0.6458520466662606152 1.2697660103531451803 1.40405948705595085 1.4155975710670227752 1.4155977337443614861 1.4040593592524530653 1.2697661394711292626 0.64585210117545954756 0.63838125756521302279 1.2731504809052871519 1.4178301980001235538 1.4323868274489075514 1.4323870350777798688 1.4178300231008793553 1.2731506534966889888 0.63838127701022084892 0.63205630883873664683 1.2698778086270194887 1.4190245836939554547 1.4352734544391629878 1.4352736447250067364 1.419024436634511499 1.2698779065774761232 0.63205632735328665106 0.62852333690273132216 1.2743414563846031662 1.4321841509867658804 1.4519338837207964588 1.4519338016358440679 1.4321842288216344308 1.2743414119583609256 0.62852336530155528127 0.64431720975134032514 1.1698837244414768133 1.2547468480041308325 1.256050065641106217 1.2560490839566502697 1.254747717605743329 1.1698829903176120038 0.64431712295534981916 0.62898860206590767596 1.1659420630740260361 1.2602202387107968029 1.2638517584099338009 1.2638509236640838029 1.2602209841304201632 1.1659414284497575665 0.62898853822425981885 0.61124506996327687691 1.1590930010083067003 1.26441676107788048 1.2708866141683594631 1.2708861332081209383 1.2644171814438887047 1.1590926321557628587 0.6112449722302570887 0.59700511798483058001 1.1531287952086919368 1.2685604272788262303 1.2777174016836891912 1.2777169407882784657 1.2685608294740298163 1.1531284490103075324 0.59700509099747500752 0.58376996072208620081 1.1453697261716138112 1.2697660104383656776 1.2815355071494114458 1.2815353404583804675 1.2697661394004138291 1.1453695981742575416 0.58376990839650122478 0.57420386072248130738 1.1401857815236178251 1.2731504812956184747 1.2878541644932566257 1.2878539516642006912 1.2731506531000766902 1.1401856154476843752 0.57420383530017204965 0.56841071107795648754 1.1338849428937489705 1.2698778084541668676 1.2861274172734162846 1.2861272801045759984 1.2698779068043906104 1.1338848724763181952 0.56841068680861595031 0.5650779863509670653 1.1319903846647694223 1.2743414573342670693 1.2938721370081200934 1.2938721663176258048 1.2743414109754354069 1.1319903878354014015 0.56507795307182318023 0.36400315641471409078 0.64431720978720907755 0.69124074749478270352 0.69281735236363417574 0.69281720748107478158 0.69124086989436084316 0.6443171229223905172 0.36400314077444129168 0.34971683613448384387 0.62898860208760565271 0.68027745181511645178 0.68338375978656606957 0.68338366552327922676 0.68027753270100133065 0.62898853820651778879 0.34971681552167138696 0.33455417793386443837 0.611245069961116827 0.66716407071752081848 0.67194106349425997138 0.67194092499863933288 0.66716418981322045401 0.61124497223887142017 0.33455416530347026338 0.3233925127309665859 0.5970051179930039309 0.65649766483955362961 0.66267607384822879713 0.66267604317739348119 0.65649768443438416554 0.59700509099582244055 0.32339248827515448825 0.31338057374172800795 0.58376996068154063391 0.64585204682925179132 0.65324557359854307226 0.65324550652683355256 0.64585210102109669172 0.58376990844985210405 0.31338057585712031372 0.30632116791440378023 0.57420386074402063326 0.63838125749064467129 0.64692892562587434035 0.64692888886368271617 0.63838127712131254032 0.57420383528821927754 0.3063211519797053306 0.30281784033433539749 0.56841071103123286257 0.63205630902918852332 0.64083271417540910164 0.64083268067205001461 0.63205632718226578692 0.56841068687372386936 0.30281783685769347869 0.30118007317200817807 0.56507798649374196831 0.62852333640479862709 0.63768809870255760419 0.63768804399089162871 0.62852336589117063781 0.56507795293306162243 0.30118006896983839926 
        </DataArray>
      </CellData>
      <Points>
        <DataArray Name="m" NumberOfComponents="3" type="Float32" format="ascii">
0 0 0 0.125 0 0 0.25 0 0 0.375 0 0 0.5 0 0 0.625 0 0 0.75 0 0 0.875 0 0 1 0 0 0 0.125 0 0.125 0.125 0 0.25 0.125 0 0.375 0.125 0 0.5 0.125 0 0.625 0.125 0 0.75 0.125 0 0.875 0.125 0 1 0.125 0 0 0.25 0 0.125 0.25 0 0.25 0.25 0 0.375 0.25 0 0.5 0.25 0 0.625 0.25 0 0.75 0.25 0 0.875 0.25 0 1 0.25 0 0 0.375 0 0.125 0.375 0 0.25 0.375 0 0.375 0.375 0 0.5 0.375 0 0.625 0.375 0 0.75 0.375 0 0.875 0.375 0 1 0.375 0 0 0.5 0 0.125 0.5 0 0.25 0.5 0 0.375 0.5 0 0.5 0.5 0 0.625 0.5 0 0.75 0.5 0 0.875 0.5 0 1 0.5 0 0 0.625 0 0.125 0.625 0 0.25 0.625 0 0.375 0.625 0 0.5 0.625 0 0.625 0.625 0 0.75 0.625 0 0.875 0.625 0 1 0.625 0 0 0.75 0 0.125 0.75 0 0.25 0.75 0 0.375 0.75 0 0.5 0.75 0 0.625 0.75 0 0.75 0.75 0 0.875 0.75 0 1 0.75 0 0 0.875 0 0.125 0.875 0 0.25 0.875 0 0.375 0.875 0 0.5 0.875 0 0.625 0.875 0 0.75 0.875 0 0.875 0.875 0 1 0.875 0 0 1 0 0.125 1 0 0.25 1 0 0.375 1 0 0.5 1 0 0.625 1 0 0.75 1 0 0.875 1 0 1 1 0 0 0 0.125 0.125 0 0.125 0.25 0 0.125 0.375 0 0.125 0.5 0 0.125 0.625 0 0.125 0.75 0 0.125 0.875 0 0.125 1 0 0.125 0 0.125 0.125 0.125 0.125 0.125 0.25 0.125 0.125 0.375 0.125 0.125 0.5 0.125 0.125 0.625 0.125 0.125 0.75 0.125 0.125 0.875 0.125 0.125 1 0.125 0.125 0 0.25 0.125 0.125 0.25 0.125 0.25 0.25 0.125 0.375 0.25 0.125 0.5 0.25 0.125 0.625 0.25 0.125 0.75 0.25 0.125 0.875 0.25 0.125 1 0.25 0.125 0 0.375 0.125 0.125 0.375 0.125 0.25 0.375 0.125 0.375 0.375 0.125 0.5 0.375 0.125 0.625 0.375 0.125 0.75 0.375 0.125 0.875 0.375 0.125 1 0.375 0.125 0 0.5 0.125 0.125 0.5 0.125 0.25 0.5 0.125 0.375 0.5 0.125 0.5 0.5 0.125 0.625 0.5 0.125 0.75 0.5 0.125 0.875 0.5 0.125 1 0.5 0.125 0 0.625 0.125 0.125 0.625 0.125 0.25 0.625 0.125 0.375 0.625 0.125 0.5 0.625 0.125 0.625 0.625 0.125 0.75 0.625 0.125 0.875 0.625 0.125 1 0.625 0.125 0 0.75 0.125 0.125 0.75 0.125 0.25 0.75 0.125 0.375 0.75 0.125 0.5 0.75 0.125 0.625 0.75 0.125 0.75 0.75 0.125 0.875 0.75 0.125 1 0.75 0.125 0 0.875 0.125 0.125 0.875 0.125 0.25 0.875 0.125 0.375 0.875 0.125 0.5 0.875 0.125 0.625 0.875 0.125 0.75 0.875 0.125 0.875 0.875 0.125 1 0.875 0.125 0 1 0.125 0.125 1 0.125 0.25 1 0.125 0.375 1 0.125 0.5 1 0.125 0.625 1 0.125 0.75 1 0.125 0.875 1 0.125 1 1 0.125 0 0 0.25 0.125 0 0.25 0.25 0 0.25 0.375 0 0.25 0.5 0 0.25 0.625 0 0.25 0.75 0 0.25 0.875 0 0.25 1 0 0.25 0 0.125 0.25 0.125 0.125 0.25 0.25 0.125 0.25 0.375 0.125 0.25 0.5 0.125 0.25 0.625 0.125 0.25 0.75 0.125 0.25 0.875 0.125 0.25 1 0.125 0.25 0 0.25 0.25 0.125 0.25 0.25 0.25 0.25 0.25 0.375 0.25 0.25 0.5 0.25 0.25 0.625 0.25 0.25 0.75 0.25 0.25 0.875 0.25 0.25 1 0.25 0.25 0 0.375 0.25 0.125 0.375 0.25 0.25 0.375 0.25 0.375 0.375 0.25 0.5 0.375 0.25 0.625 0.375 0.25 0.75 0.375 0.25 0.875 0.375 0.25 1 0.375 0.25 0 0.5 0.25 0.125 0.5 0.25 0.25 0.5 0.25 0.375 0.5 0.25 0.5 0.5 0.25 0.625 0.5 0.25 0.75 0.5 0.25 0.875 0.5 0.25 1 0.5 0.25 0 0.625 0.25 0.125 0.625 0.25 0.25 0.625 0.25 0.375 0.625 0.25 0.5 0.625 0.25 0.625 0.625 0.25 0.75 0.625 0.25 0.875 0.625 0.25 1 0.625 0.25 0 0.75 0.25 0.125 0.75 0.25 0.25 0.75 0.25 0.375 0.75 0.25 0.5 0.75 0.25 0.625 0.75 0.25 0.75 0.75 0.25 0.875 0.75 0.25 1 0.75 0.25 0 0.875 0.25 0.125 0.875 0.25 0.25 0.875 0.25 0.375 0.875 0.25 0.5 0.875 0.25 0.625 0.875 0.25 0.75 0.875 0.25 0.875 0.875 0.25 1 0.875 0.25 0 1 0.25 0.125 1 0.25 0.25 1 0.25 0.375 1 0.25 0.5 1 0.25 0.625 1 0.25 0.75 1 0.25 0.875 1 0.25 1 1 0.25 0 0 0.375 0.125 0 0.375 0.25 0 0.375 0.375 0 0.375 0.5 0 0.375 0.625 0 0.375 0.75 0 0.375 0.875 0 0.375 1 0 0.375 0 0.125 0.375 0.125 0.125 0.375 0.25 0.125 0.375 0.375 0.125 0.375 0.5 0.125 0.375 0.625 0.125 0.375 0.75 0.125 0.375 0.875 0.125 0.375 1 0.125 0.375 0 0.25 0.375 0.125 0.25 0.375 0.25 0.25 0.375 0.375 0.25 0.375 0.5 0.25 0.375 0.625 0.25 0.375 0.75 0.25 0.375 0.875 0.25 0.375 1 0.25 0.375 0 0.375 0.375 0.125 0.375 0.375 0.25 0.375 0.375 0.375 0.375 0.375 0.5 0.375 0.375 0.625 0.375 0.375 0.75 0.375 0.375 0.875 0.375 0.375 1 0.375 0.375 0 0.5 0.375 0.125 0.5 0.375 0.25 0.5 0.375 0.375 0.5 0.375 0.5 0.5 0.375 0.625 0.5 0.375 0.75 0.5 0.375 0.875 0.5 0.375 1 0.5 0.375 0 0.625 0.375 0.125 0.625 0.375 0.25 0.625 0.375 0.375 0.625 0.375 0.5 0.625 0.375 0.625 0.625 0.375 0.75 0.625 0.375 0.875 0.625 0.375 1 0.625 0.375 0 0.75 0.375 0.125 0.75 0.375 0.25 0.75 0.375 0.375 0.75 0.375 0.5 0.75 0.375 0.625 0.75 0.375 0.75 0.75 0.375 0.875 0.75 0.375 1 0.75 0.375 0 0.875 0.375 0.125 0.875 0.375 0.25 0.875 0.375 0.375 0.875 0.375 0.5 0.875 0.375 0.625 0.875 0.375 0.75 0.875 0.375 0.875 0.875 0.375 1 0.875 0.375 0 1 0.375 0.125 1 0.375 0.25 1 0.375 0.375 1 0.375 0.5 1 0.375 0.625 1 0.375 0.75 1 0.375 0.875 1 0.375 1 1 0.375 0 0 0.5 0.125 0 0.5 0.25 0 0.5 0.375 0 0.5 0.5 0 0.5 0.625 0 0.5 0.75 0 0.5 0.875 0 0.5 1 0 0.5 0 0.125 0.5 0.125 0.125 0.5 0.25 0.125 0.5 0.375 0.125 0.5 0.5 0.125 0.5 0.625 0.125 0.5 0.75 0.125 0.5 0.875 0.125 0.5 1 0.125 0.5 0 0.25 0.5 0.125 0.25 0.5 0.25 0.25 0.5 0.375 0.25 0.5 0.5 0.25 0.5 0.625 0.25 0.5 0.75 0.25 0.5 0.875 0.25 0.5 1 0.25 0.5 0 0.375 0.5 0.125 0.375 0.5 0.25 0.375 0.5 0.375 0.375 0.5 0.5 0.375 0.5 0.625 0.375 0.5 0.75 0.375 0.5 0.875 0.375 0.5 1 0.375 0.5 0 0.5 0.5 0.125 0.5 0.5 0.25 0.5 0.5 0.375 0.5 0.5 0.5 0.5 0.5 0.625 0.5 0.5 0.75 0.5 0.5 0.875 0.5 0.5 1 0.5 0.5 0 0.625 0.5 0.125 0.625 0.5 0.25 0.625 0.5 0.375 0.625 0.5 0.5 0.625 0.5 0.625 0.625 0.5 0.75 0.625 0.5 0.875 0.625 0.5 1 0.625 0.5 0 0.75 0.5 0.125 0.75 0.5 0.25 0.75 0.5 0.375 0.75 0.5 0.5 0.75 0.5 0.625 0.75 0.5 0.75 0.75 0.5 0.875 0.75 0.5 1 0.75 0.5 0 0.875 0.5 0.125 0.875 0.5 0.25 0.875 0.5 0.375 0.875 0.5 0.5 0.875 0.5 0.625 0.875 0.5 0.75 0.875 0.5 0.875 0.875 0.5 1 0.875 0.5 0 1 0.5 0.125 1 0.5 0.25 1 0.5 0.375 1 0.5 0.5 1 0.5 0.625 1 0.5 0.75 1 0.5 0.875 1 0.5 1 1 0.5 0 0 0.625 0.125 0 0.625 0.25 0 0.625 0.375 0 0.625 0.5 0 0.625 0.625 0 0.625 0.75 0 0.625 0.875 0 0.625 1 0 0.625 0 0.125 0.625 0.125 0.125 0.625 0.25 0.125 0.625 0.375 0.125 0.625 0.5 0.125 0.625 0.625 0.125 0.625 0.75 0.125 0.625 0.875 0.125 0.625 1 0.125 0.625 0 0.25 0.625 0.125 0.25 0.625 0.25 0.25 0.625 0.375 0.25 0.625 0.5 0.25 0.625 0.625 0.25 0.625 0.75 0.25 0.625 0.875 0.25 0.625 1 0.25 0.625 0 0.375 0.625 0.125 0.375 0.625 0.25 0.375 0.625 0.375 0.375 0.625 0.5 0.375 0.625 0.625 0.375 0.625 0.75 0.375 0.625 0.875 0.375 0.625 1 0.375 0.625 0 0.5 0.625 0.125 0.5 0.625 0.25 0.5 0.625 0.375 0.5 0.625 0.5 0.5 0.625 0.625 0.5 0.625 0.75 0.5 0.625 0.875 0.5 0.625 1 0.5 0.625 0 0.625 0.625 0.125 0.625 0.625 0.25 0.625 0.625 0.375 0.625 0.625 0.5 0.625 0.625 0.625 0.625 0.625 0.75 0.625 0.625 0.875 0.625 0.625 1 0.625 0.625 0 0.75 0.625 0.125 0.75 0.625 0.25 0.75 0.625 0.375 0.75 0.625 0.5 0.75 0.625 0.625 0.75 0.625 0.75 0.75 0.625 0.875 0.75 0.625 1 0.75 0.625 0 0.875 0.625 0.125 0.875 0.625 0.25 0.875 0.625 0.375 0.875 0.625 0.5 0.875 0.625 0.625 0.875 0.625 0.75 0.875 0.625 0.875 0.875 0.625 1 0.875 0.625 0 1 0.625 0.125 1 0.625 0.25 1 0.625 0.375 1 0.625 0.5 1 0.625 0.625 1 0.625 0.75 1 0.625 0.875 1 0.625 1 1 0.625 0 0 0.75 0.125 0 0.75 0.25 0 0.75 0.375 0 0.75 0.5 0 0.75 0.625 0 0.75 0.75 0 0.75 0.875 0 0.75 1 0 0.75 0 0.125 0.75 0.125 0.125 0.75 0.25 0.125 0.75 0.375 0.125 0.75 0.5 0.125 0.75 0.625 0.125 0.75 0.75 0.125 0.75 0.875 0.125 0.75 1 0.125 0.75 0 0.25 0.75 0.125 0.25 0.75 0.25 0.25 0.75 0.375 0.25 0.75 0.5 0.25 0.75 0.625 0.25 0.75 0.75 0.25 0.75 0.875 0.25 0.75 1 0.25 0.75 0 0.375 0.75 0.125 0.375 0.75 0.25 0.375 0.75 0.375 0.375 0.75 0.5 0.375 0.75 0.625 0.375 0.75 0.75 0.375 0.75 0.875 0.375 0.75 1 0.375 0.75 0 0.5 0.75 0.125 0.5 0.75 0.25 0.5 0.75 0.375 0.5 0.75 0.5 0.5 0.75 0.625 0.5 0.75 0.75 0.5 0.75 0.875 0.5 0.75 1 0.5 0.75 0 0.625 0.75 0.125 0.625 0.75 0.25 0.625 0.75 0.375 0.625 0.75 0.5 0.625 0.75 0.625 0.625 0.75 0.75 0.625 0.75 0.875 0.625 0.75 1 0.625 0.75 0 0.75 0.75 0.125 0.75 0.75 0.25 0.75 0.75 0.375 0.75 0.75 0.5 0.75 0.75 0.625 0.75 0.75 0.75 0.75 0.75 0.875 0.75 0.75 1 0.75 0.75 0 0.875 0.75 0.125 0.875 0.75 0.25 0.875 0.75 0.375 0.875 0.75 0.5 0.875 0.75 0.625 0.875 0.75 0.75 0.875 0.75 0.875 0.875 0.75 1 0.875 0.75 0 1 0.75 0.125 1 0.75 0.25 1 0.75 0.375 1 0.75 0.5 1 0.75 0.625 1 0.75 0.75 1 0.75 0.875 1 0.75 1 1 0.75 0 0 0.875 0.125 0 0.875 0.25 0 0.875 0.375 0 0.875 0.5 0 0.875 0.625 0 0.875 0.75 0 0.875 0.875 0 0.875 1 0 0.875 0 0.125 0.875 0.125 0.125 0.875 0.25 0.125 0.875 0.375 0.125 0.875 0.5 0.125 0.875 0.625 0.125 0.875 0.75 0.125 0.875 0.875 0.125 0.875 1 0.125 0.875 0 0.25 0.875 0.125 0.25 0.875 0.25 0.25 0.875 0.375 0.25 0.875 0.5 0.25 0.875 0.625 0.25 0.875 0.75 0.25 0.875 0.875 0.25 0.875 1 0.25 0.875 0 0.375 0.875 0.125 0.375 0.875 0.25 0.375 0.875 0.375 0.375 0.875 0.5 0.375 0.875 0.625 0.375 0.875 0.75 0.375 0.875 0.875 0.375 0.875 1 0.375 0.875 0 0.5 0.875 0.125 0.5 0.875 0.25 0.5 0.875 0.375 0.5 0.875 0.5 0.5 0.875 0.625 0.5 0.875 0.75 0.5 0.875 0.875 0.5 0.875 1 0.5 0.875 0 0.625 0.875 0.125 0.625 0.875 0.25 0.625 0.875 0.375 0.625 0.875 0.5 0.625 0.875 0.625 0.625 0.875 0.75 0.625 0.875 0.875 0.625 0.875 1 0.625 0.875 0 0.75 0.875 0.125 0.75 0.875 0.25 0.75 0.875 0.375 0.75 0.875 0.5 0.75 0.875 0.625 0.75 0.875 0.75 0.75 0.875 0.875 0.75 0.875 1 0.75 0.875 0 0.875 0.875 0.125 0.875 0.875 0.25 0.875 0.875 0.375 0.875 0.875 0.5 0.875 0.875 0.625 0.875 0.875 0.75 0.875 0.875 0.875 0.875 0.875 1 0.875 0.875 0 1 0.875 0.125 1 0.875 0.25 1 0.875 0.375 1 0.875 0.5 1 0.875 0.625 1 0.875 0.75 1 0.875 0.875 1 0.875 1 1 0.875 0 0 1 0.125 0 1 0.25 0 1 0.375 0 1 0.5 0 1 0.625 0 1 0.75 0 1 0.875 0 1 1 0 1 0 0.125 1 0.125 0.125 1 0.25 0.125 1 0.375 0.125 1 0.5 0.125 1 0.625 0.125 1 0.75 0.125 1 0.875 0.125 1 1 0.125 1 0 0.25 1 0.125 0.25 1 0.25 0.25 1 0.375 0.25 1 0.5 0.25 1 0.625 0.25 1 0.75 0.25 1 0.875 0.25 1 1 0.25 1 0 0.375 1 0.125 0.375 1 0.25 0.375 1 0.375 0.375 1 0.5 0.375 1 0.625 0.375 1 0.75 0.375 1 0.875 0.375 1 1 0.375 1 0 0.5 1 0.125 0.5 1 0.25 0.5 1 0.375 0.5 1 0.5 0.5 1 0.625 0.5 1 0.75 0.5 1 0.875 0.5 1 1 0.5 1 0 0.625 1 0.125 0.625 1 0.25 0.625 1 0.375 0.625 1 0.5 0.625 1 0.625 0.625 1 0.75 0.625 1 0.875 0.625 1 1 0.625 1 0 0.75 1 0.125 0.75 1 0.25 0.75 1 0.375 0.75 1 0.5 0.75 1 0.625 0.75 1 0.75 0.75 1 0.875 0.75 1 1 0.75 1 0 0.875 1 0.125 0.875 1 0.25 0.875 1 0.375 0.875 1 0.5 0.875 1 0.625 0.875 1 0.75 0.875 1 0.875 0.875 1 1 0.875 1 0 1 1 0.125 1 1 0.25 1 1 0.375 1 1 0.5 1 1 0.625 1 1 0.75 1 1 0.875 1 1 1 1 1         </DataArray>
      </Points>
    </Piece>
  </StructuredGrid>
</VTKFile>
