<?xml version="1.0"?>
<VTKFile type="StructuredGrid" version="0.1" byte_order="LittleEndian">
  <StructuredGrid WholeExtent="0 8 0 8 0 8">
    <Piece Extent="0 8 0 8 0 8">
      <PointData>
      </PointData>
      <CellData>
        <DataArray Name="vy" NumberOfComponents="1" type="Float32" format="ascii">
0.49279018503900456905 0.77086383501982447264 0.77015365309564520757 0.74969923990514197865 0.74969955957699230265 0.77015337419391094453 0.77086403331067421263 0.4927901801017425254 0.46407689917806665969 0.74901121450973029425 0.75451558363491011416 0.73497034126726523695 0.73497066895665419395 0.75451529573348496971 0.7490114363764295291 0.46407691736810996463 0.42039956157253099978 0.71160714864643470623 0.72927054468560192912 0.71351594547602026353 0.71351621473453152866 0.72927031445428847078 0.71160734741703779438 0.42039960313209412401 0.38391978419296629577 0.67408933804794624045 0.70508331119990697022 0.69449999728718958547 0.6945002094617889199 0.70508313862038274333 0.67408950656597532713 0.3839198255149888217 0.35382273031396410667 0.63854719009250804351 0.68147912777861185951 0.67641591720392513221 0.67641604213657446909 0.68147903599449266565 0.6385472957546400874 0.3538227573658803693 0.33204295958356894181 0.6104032306086857318 0.66297466524288994894 0.66309099596043630243 0.6630910997877420554 0.66297459701749794636 0.61040331804485370437 0.33204298747120741808 0.31818388068360298204 0.59042887173201841211 0.64757690385895727569 0.65104989681502312138 0.65104997925005370085 0.64757685406156417773 0.5904289325947464917 0.31818389611772285308 0.3109602869684697235 0.57866729266130745302 0.63861164518555968428 0.6445930833189401632 0.64459309306806689133 0.63861166023338689079 0.57866731486479183744 0.31096030821616188478 0.77086383438065020357 1.2312403326231060596 1.2356722522019454313 1.2073756011776639596 1.2073779440767538063 1.2356701967098575601 1.2312420983623773019 0.77086403360846911248 0.74901121403287607148 1.2328530126772401232 1.2465563736809319728 1.2183530165890164021 1.2183548127039234288 1.2465547882025140858 1.2328544392359988002 0.74901143659862023938 0.71160714838592675768 1.2288646313942912514 1.260664213554338664 1.2352514935727689771 1.2352528703381313591 1.2606630092597101989 1.2288657543142595951 0.71160734753907561867 0.67408933803043402655 1.2189861355078717153 1.2728854629121693076 1.2521585253662890214 1.2521594354365706003 1.2728846868155223593 1.2189869013705465495 0.67408950657629984615 0.63854719019172068162 1.2016859189385618034 1.278756514589120874 1.264333291785101121 1.2643338425048709084 1.2787560641333133304 1.2016864105614344371 0.63854729571167101465 0.61040323073443603086 1.1841565406512559733 1.283920118806064492 1.2774791458748269157 1.2774796291267014325 1.2839197403377764495 1.1841569362011252764 0.61040331798800440133 0.59042887186762826879 1.1649330432248001799 1.2795571309028435092 1.2799651638549058852 1.2799653535788833025 1.279557003787252345 1.1649331958760793526 0.59042893253222228367 0.5786672927673264244 1.1534774213384284547 1.2831978641041963396 1.291776438486312184 1.2917766962306558298 1.2831976898023369493 1.1534776017946160032 0.57866731481360977885 0.77015365346113839884 1.2356722466380813952 1.2348219771878163886 1.2032389786656587649 1.2032363955498541763 1.2348242437330561039 1.2356701992987264571 0.77015337402799877164 0.75451558367963200702 1.2465563690843959321 1.2558849521506563196 1.2243911683638293297 1.224389312638370475 1.2558865891182187102 1.2465547903406555275 0.7545152957156148199 0.72927054439853944423 1.2606642100715905741 1.2897183876091182775 1.261294328687796229 1.2612929565790089725 1.289719580706822244 1.2606630108802499013 0.72927031459045044137 0.70508331068238805361 1.2728854605336188399 1.3254858526300317134 1.3018586782593153384 1.3018578317243187925 1.3254865677653120404 1.2728846879201975995 0.70508313886412998794 0.6814791273125289095 1.2787565131558114029 1.3561246690829253936 1.3387119771951918601 1.3387115360833845568 1.3561250252385634862 1.2787560648011639941 0.68147903621755345771 0.66297466482565403645 1.2839201178036363515 1.3863234034308526965 1.3768104696409071419 1.3768100370248028685 1.3863237446588640989 1.2839197408119442656 0.6629745972191725123 0.64757690353404795403 1.2795571302683022008 1.3995121053485874985 1.3970281540137903242 1.3970280103190599874 1.3995122010063760776 1.2795570040986561366 0.64757685422339306136 0.63861164484445054335 1.283197863625869628 1.421992194551191524 1.4280901260707843381 1.4280898329356810361 1.4219924168676651988 1.2831976900500479122 0.63861166040344619077 0.74969924033460488833 1.207375616184835021 1.2032389694050809048 1.1699414693380965069 1.1699443738102339729 1.2032363998888671031 1.2073779371398674076 0.74969955939661592215 0.7349703421793991609 1.2183530290706194865 1.2243911610517426158 1.1910824735129759144 1.191084541487846149 1.2243893160641805551 1.2183548069345748743 0.73497066854759207644 0.71351594675417095992 1.235251503132007489 1.2612943234272644411 1.2312515327870698911 1.2312530852962020322 1.2612929590519743606 1.2352528659238417585 0.71351621415269039783 0.6944999985267965581 1.2521585317380723446 1.3018586751312410943 1.2769499089153610871 1.2769508984014195097 1.3018578331845966911 1.2521594324824436573 0.69450020889076846675 0.67641591801439415743 1.2643332953065304913 1.3387119758896697252 1.3203337170648186127 1.3203342616346875893 1.338711536680659453 1.2643338408670596884 0.67641604177197278691 0.66309099651090486205 1.2774791479840348352 1.3768104691290348196 1.36646457213518846 1.3664651258450963844 1.3768100372653053753 1.2774796281620692806 0.66309109955585321394 0.65104989709985017221 1.2799651648235652601 1.3970281541253743995 1.3937716487648268426 1.3937718679296522417 1.3970280103008114736 1.2799653531836931997 0.65104997916053186646 0.64459308361649214625 1.2917764388201358194 1.4280901266884442613 1.4332084895081562692 1.4332088978169101878 1.4280898327150581828 1.2917766961670806847 0.64459309298338740568 0.74969955853452696637 1.2073779204152150779 1.2032364150248320289 1.1699443618208023032 1.1699414749438783456 1.2032389696599834483 1.2073756122138372682 0.74969924041324942365 0.73497066735989513564 1.2183547931687830346 1.2243893279800710516 1.1910845321152008225 1.1910824778954722802 1.2243911612729505567 1.2183530256989911766 0.73497034202723843244 0.71351621277563082035 1.2352528556561239714 1.261292967572953172 1.2312530786749662504 1.2312515358916675812 1.2612943236147340365 1.2352515004265127718 0.71351594640019655458 0.69450020764489239777 1.2521594257636059488 1.301857838408748691 1.2769508942400060736 1.2769499108559589917 1.3018586751638834276 1.252158529870024406 0.69449999813649387903 0.67641604091738727345 1.2643338371093886252 1.33871153924005859 1.3203342593168541086 1.3203337181318690607 1.338711975721042835 1.2643332942898735105 0.67641591777881004965 0.66309109888012451872 1.2774796257361089591 1.3768100387473665158 1.3664651242099374873 1.3664645728955280291 1.3768104688442301953 1.2774791474632143373 0.66309099639994106834 0.6510499787460464205 1.2799653518654756645 1.3970280109536337143 1.393771866911398094 1.3937716492645790822 1.3970281537574211761 1.279965164696211577 0.65104989708249849656 0.644593092520686195 1.2917766954249085831 1.4280898327449593754 1.4332088972016012729 1.4332084898511292526 1.4280901262404626095 1.2917764389397792257 0.64459308361677636334 0.77015337610121337164 1.2356702236209438084 1.2348242200842218796 1.2032364193634266236 1.2032389603990625293 1.2348219881963293787 1.2356722397125337043 0.77015365221808718132 0.7545152982107691253 1.2465548105052830508 1.2558865706392359218 1.2243893314055198651 1.224391153960560974 1.2558849607536912707 1.2465563633340770444 0.75451558249204209172 0.7292703171084421454 1.2606630260890900885 1.2897195677013988391 1.261292970045649442 1.2612943183539750969 1.2897183936688922934 1.2606642057463794959 0.72927054345816688663 0.70508314069575450667 1.2728846977413850183 1.3254865601295047206 1.3018578398687927766 1.3018586720356031261 1.325485856185482314 1.2728854578432879929 0.70508331023754644562 0.68147903705403012342 1.2787560698119573299 1.356125022003137115 1.3387115398370266206 1.3387119744152271572 1.356124670588507497 1.2787565119561581373 0.6814791272835906133 0.66297459753251475334 1.2839197434520346341 1.3863237431183974557 1.3768100389880422174 1.3768104683325390614 1.3863234041542935593 1.2839201173565946146 0.66297466499238544291 0.6475768541082908003 1.2795570049290754255 1.3995122006869913367 1.3970280109360120324 1.3970281538696338597 1.3995121055097754503 1.279557130364568529 0.64757690382078336722 0.63861166028531868299 1.2831976896929129239 1.4219924175569205183 1.4280898325253252867 1.4280901268591081887 1.4219921942589868191 1.2831978641483723358 0.63861164514023860406 0.77086403233646849653 1.2312420714722238646 1.2356702262096324052 1.2073779134778384048 1.2073756272203541862 1.2356722341485715244 1.2312403451273765675 0.7708638354807225701 0.74901143472797548917 1.2328544161906347387 1.2465548126432763887 1.2183547873990470123 1.2183530381800691256 1.2465563587374619559 1.2328530233931254134 0.74901121528242953218 0.71160734524581126248 1.2288657362598423006 1.260663027709505446 1.2352528512413682993 1.2352515099851772984 1.260664202263561906 1.2288646397902347474 0.71160714965902804874 0.67408950447605464618 1.2189868890693988934 1.2728846988461701706 1.2521594228096517565 1.2521585362419025422 1.2728854554648865172 1.2189861412280416086 0.67408933901849976689 0.63854729433095824831 1.2016864035306862313 1.27875607048013884 1.2643338354718089978 1.2643332978114842913 1.2787565105232043816 1.2016859222031928134 0.6385471907434011607 0.61040331698962912998 1.1841569318641227415 1.2839197439271081702 1.2774796247722899345 1.2774791495731996349 1.2839201163550897355 1.1841565426480376022 0.61040323107402727487 0.59042893202059942848 1.1649331937464419973 1.2795570052418054896 1.2799653514726005987 1.2799651656671677813 1.2795571297313614867 1.164933044173498633 0.59042887196054227861 0.5786673142512097634 1.1534776006461531228 1.2831976899425356908 1.291776695365724148 1.2917764392779902405 1.2831978636719598708 1.1534774218137660018 0.57866729289753160437 0.49279018150470771387 0.77086403263417402343 0.77015337593506194569 0.74969955835353108142 0.74969924084207906212 0.77015365258334411713 0.77086383484146769884 0.49279018439297950227 0.46407691813506057876 0.74901143495011690554 0.75451529819275409139 0.73497066695047730267 0.73497034293900154189 0.75451558253662553977 0.74901121480553289889 0.46407689882624025834 0.42039960315698304827 0.71160734536788561311 0.72927031724453972306 0.71351621219325789269 0.7135159476777988008 0.72927054317104700321 0.71160714939856029027 0.42039956156270741339 0.38391982507584954121 0.67408950448653892629 0.70508314093995749783 0.69450020707489068528 0.69449999937710527043 0.70508330972049160223 0.67408933900114831328 0.38391978439514473642 0.35382275696194492864 0.63854729428842882388 0.68147903727787051409 0.67641604055359860759 0.6764159185900806559 0.68147912681829370118 0.6385471908430533361 0.35382273049274620691 0.33204298712366620006 0.61040331693357452458 0.66297459773546185691 0.66309109864869697493 0.66309099695086204385 0.66297466457642673099 0.61040323120057149442 0.33204295972773445467 0.3181838958997081912 0.59042893195884005308 0.64757685427222488883 0.65104997866086067315 0.65104989737165785968 0.647576903497982026 0.59042887209691496953 0.318183880759948301 0.31096030801546487021 0.57866731420091732652 0.63861166045876094355 0.64459309244464901845 0.64459308392296887913 0.63861164480251630948 0.57866729300443897621 0.31096028703024686246 
        </DataArray>
      </CellData>
      <Points>
        <DataArray Name="m" NumberOfComponents="3" type="Float32" format="ascii">
0 0 0 0.125 0 0 0.25 0 0 0.375 0 0 0.5 0 0 0.625 0 0 0.75 0 0 0.875 0 0 1 0 0 0 0.125 0 0.125 0.125 0 0.25 0.125 0 0.375 0.125 0 0.5 0.125 0 0.625 0.125 0 0.75 0.125 0 0.875 0.125 0 1 0.125 0 0 0.25 0 0.125 0.25 0 0.25 0.25 0 0.375 0.25 0 0.5 0.25 0 0.625 0.25 0 0.75 0.25 0 0.875 0.25 0 1 0.25 0 0 0.375 0 0.125 0.375 0 0.25 0.375 0 0.375 0.375 0 0.5 0.375 0 0.625 0.375 0 0.75 0.375 0 0.875 0.375 0 1 0.375 0 0 0.5 0 0.125 0.5 0 0.25 0.5 0 0.375 0.5 0 0.5 0.5 0 0.625 0.5 0 0.75 0.5 0 0.875 0.5 0 1 0.5 0 0 0.625 0 0.125 0.625 0 0.25 0.625 0 0.375 0.625 0 0.5 0.625 0 0.625 0.625 0 0.75 0.625 0 0.875 0.625 0 1 0.625 0 0 0.75 0 0.125 0.75 0 0.25 0.75 0 0.375 0.75 0 0.5 0.75 0 0.625 0.75 0 0.75 0.75 0 0.875 0.75 0 1 0.75 0 0 0.875 0 0.125 0.875 0 0.25 0.875 0 0.375 0.875 0 0.5 0.875 0 0.625 0.875 0 0.75 0.875 0 0.875 0.875 0 1 0.875 0 0 1 0 0.125 1 0 0.25 1 0 0.375 1 0 0.5 1 0 0.625 1 0 0.75 1 0 0.875 1 0 1 1 0 0 0 0.125 0.125 0 0.125 0.25 0 0.125 0.375 0 0.125 0.5 0 0.125 0.625 0 0.125 0.75 0 0.125 0.875 0 0.125 1 0 0.125 0 0.125 0.125 0.125 0.125 0.125 0.25 0.125 0.125 0.375 0.125 0.125 0.5 0.125 0.125 0.625 0.125 0.125 0.75 0.125 0.125 0.875 0.125 0.125 1 0.125 0.125 0 0.25 0.125 0.125 0.25 0.125 0.25 0.25 0.125 0.375 0.25 0.125 0.5 0.25 0.125 0.625 0.25 0.125 0.75 0.25 0.125 0.875 0.25 0.125 1 0.25 0.125 0 0.375 0.125 0.125 0.375 0.125 0.25 0.375 0.125 0.375 0.375 0.125 0.5 0.375 0.125 0.625 0.375 0.125 0.75 0.375 0.125 0.875 0.375 0.125 1 0.375 0.125 0 0.5 0.125 0.125 0.5 0.125 0.25 0.5 0.125 0.375 0.5 0.125 0.5 0.5 0.125 0.625 0.5 0.125 0.75 0.5 0.125 0.875 0.5 0.125 1 0.5 0.125 0 0.625 0.125 0.125 0.625 0.125 0.25 0.625 0.125 0.375 0.625 0.125 0.5 0.625 0.125 0.625 0.625 0.125 0.75 0.625 0.125 0.875 0.625 0.125 1 0.625 0.125 0 0.75 0.125 0.125 0.75 0.125 0.25 0.75 0.125 0.375 0.75 0.125 0.5 0.75 0.125 0.625 0.75 0.125 0.75 0.75 0.125 0.875 0.75 0.125 1 0.75 0.125 0 0.875 0.125 0.125 0.875 0.125 0.25 0.875 0.125 0.375 0.875 0.125 0.5 0.875 0.125 0.625 0.875 0.125 0.75 0.875 0.125 0.875 0.875 0.125 1 0.875 0.125 0 1 0.125 0.125 1 0.125 0.25 1 0.125 0.375 1 0.125 0.5 1 0.125 0.625 1 0.125 0.75 1 0.125 0.875 1 0.125 1 1 0.125 0 0 0.25 0.125 0 0.25 0.25 0 0.25 0.375 0 0.25 0.5 0 0.25 0.625 0 0.25 0.75 0 0.25 0.875 0 0.25 1 0 0.25 0 0.125 0.25 0.125 0.125 0.25 0.25 0.125 0.25 0.375 0.125 0.25 0.5 0.125 0.25 0.625 0.125 0.25 0.75 0.125 0.25 0.875 0.125 0.25 1 0.125 0.25 0 0.25 0.25 0.125 0.25 0.25 0.25 0.25 0.25 0.375 0.25 0.25 0.5 0.25 0.25 0.625 0.25 0.25 0.75 0.25 0.25 0.875 0.25 0.25 1 0.25 0.25 0 0.375 0.25 0.125 0.375 0.25 0.25 0.375 0.25 0.375 0.375 0.25 0.5 0.375 0.25 0.625 0.375 0.25 0.75 0.375 0.25 0.875 0.375 0.25 1 0.375 0.25 0 0.5 0.25 0.125 0.5 0.25 0.25 0.5 0.25 0.375 0.5 0.25 0.5 0.5 0.25 0.625 0.5 0.25 0.75 0.5 0.25 0.875 0.5 0.25 1 0.5 0.25 0 0.625 0.25 0.125 0.625 0.25 0.25 0.625 0.25 0.375 0.625 0.25 0.5 0.625 0.25 0.625 0.625 0.25 0.75 0.625 0.25 0.875 0.625 0.25 1 0.625 0.25 0 0.75 0.25 0.125 0.75 0.25 0.25 0.75 0.25 0.375 0.75 0.25 0.5 0.75 0.25 0.625 0.75 0.25 0.75 0.75 0.25 0.875 0.75 0.25 1 0.75 0.25 0 0.875 0.25 0.125 0.875 0.25 0.25 0.875 0.25 0.375 0.875 0.25 0.5 0.875 0.25 0.625 0.875 0.25 0.75 0.875 0.25 0.875 0.875 0.25 1 0.875 0.25 0 1 0.25 0.125 1 0.25 0.25 1 0.25 0.375 1 0.25 0.5 1 0.25 0.625 1 0.25 0.75 1 0.25 0.875 1 0.25 1 1 0.25 0 0 0.375 0.125 0 0.375 0.25 0 0.375 0.375 0 0.375 0.5 0 0.375 0.625 0 0.375 0.75 0 0.375 0.875 0 0.375 1 0 0.375 0 0.125 0.375 0.125 0.125 0.375 0.25 0.125 0.375 0.375 0.125 0.375 0.5 0.125 0.375 0.625 0.125 0.375 0.75 0.125 0.375 0.875 0.125 0.375 1 0.125 0.375 0 0.25 0.375 0.125 0.25 0.375 0.25 0.25 0.375 0.375 0.25 0.375 0.5 0.25 0.375 0.625 0.25 0.375 0.75 0.25 0.375 0.875 0.25 0.375 1 0.25 0.375 0 0.375 0.375 0.125 0.375 0.375 0.25 0.375 0.375 0.375 0.375 0.375 0.5 0.375 0.375 0.625 0.375 0.375 0.75 0.375 0.375 0.875 0.375 0.375 1 0.375 0.375 0 0.5 0.375 0.125 0.5 0.375 0.25 0.5 0.375 0.375 0.5 0.375 0.5 0.5 0.375 0.625 0.5 0.375 0.75 0.5 0.375 0.875 0.5 0.375 1 0.5 0.375 0 0.625 0.375 0.125 0.625 0.375 0.25 0.625 0.375 0.375 0.625 0.375 0.5 0.625 0.375 0.625 0.625 0.375 0.75 0.625 0.375 0.875 0.625 0.375 1 0.625 0.375 0 0.75 0.375 0.125 0.75 0.375 0.25 0.75 0.375 0.375 0.75 0.375 0.5 0.75 0.375 0.625 0.75 0.375 0.75 0.75 0.375 0.875 0.75 0.375 1 0.75 0.375 0 0.875 0.375 0.125 0.875 0.375 0.25 0.875 0.375 0.375 0.875 0.375 0.5 0.875 0.375 0.625 0.875 0.375 0.75 0.875 0.375 0.875 0.875 0.375 1 0.875 0.375 0 1 0.375 0.125 1 0.375 0.25 1 0.375 0.375 1 0.375 0.5 1 0.375 0.625 1 0.375 0.75 1 0.375 0.875 1 0.375 1 1 0.375 0 0 0.5 0.125 0 0.5 0.25 0 0.5 0.375 0 0.5 0.5 0 0.5 0.625 0 0.5 0.75 0 0.5 0.875 0 0.5 1 0 0.5 0 0.125 0.5 0.125 0.125 0.5 0.25 0.125 0.5 0.375 0.125 0.5 0.5 0.125 0.5 0.625 0.125 0.5 0.75 0.125 0.5 0.875 0.125 0.5 1 0.125 0.5 0 0.25 0.5 0.125 0.25 0.5 0.25 0.25 0.5 0.375 0.25 0.5 0.5 0.25 0.5 0.625 0.25 0.5 0.75 0.25 0.5 0.875 0.25 0.5 1 0.25 0.5 0 0.375 0.5 0.125 0.375 0.5 0.25 0.375 0.5 0.375 0.375 0.5 0.5 0.375 0.5 0.625 0.375 0.5 0.75 0.375 0.5 0.875 0.375 0.5 1 0.375 0.5 0 0.5 0.5 0.125 0.5 0.5 0.25 0.5 0.5 0.375 0.5 0.5 0.5 0.5 0.5 0.625 0.5 0.5 0.75 0.5 0.5 0.875 0.5 0.5 1 0.5 0.5 0 0.625 0.5 0.125 0.625 0.5 0.25 0.625 0.5 0.375 0.625 0.5 0.5 0.625 0.5 0.625 0.625 0.5 0.75 0.625 0.5 0.875 0.625 0.5 1 0.625 0.5 0 0.75 0.5 0.125 0.75 0.5 0.25 0.75 0.5 0.375 0.75 0.5 0.5 0.75 0.5 0.625 0.75 0.5 0.75 0.75 0.5 0.875 0.75 0.5 1 0.75 0.5 0 0.875 0.5 0.125 0.875 0.5 0.25 0.875 0.5 0.375 0.875 0.5 0.5 0.875 0.5 0.625 0.875 0.5 0.75 0.875 0.5 0.875 0.875 0.5 1 0.875 0.5 0 1 0.5 0.125 1 0.5 0.25 1 0.5 0.375 1 0.5 0.5 1 0.5 0.625 1 0.5 0.75 1 0.5 0.875 1 0.5 1 1 0.5 0 0 0.625 0.125 0 0.625 0.25 0 0.625 0.375 0 0.625 0.5 0 0.625 0.625 0 0.625 0.75 0 0.625 0.875 0 0.625 1 0 0.625 0 0.125 0.625 0.125 0.125 0.625 0.25 0.125 0.625 0.375 0.125 0.625 0.5 0.125 0.625 0.625 0.125 0.625 0.75 0.125 0.625 0.875 0.125 0.625 1 0.125 0.625 0 0.25 0.625 0.125 0.25 0.625 0.25 0.25 0.625 0.375 0.25 0.625 0.5 0.25 0.625 0.625 0.25 0.625 0.75 0.25 0.625 0.875 0.25 0.625 1 0.25 0.625 0 0.375 0.625 0.125 0.375 0.625 0.25 0.375 0.625 0.375 0.375 0.625 0.5 0.375 0.625 0.625 0.375 0.625 0.75 0.375 0.625 0.875 0.375 0.625 1 0.375 0.625 0 0.5 0.625 0.125 0.5 0.625 0.25 0.5 0.625 0.375 0.5 0.625 0.5 0.5 0.625 0.625 0.5 0.625 0.75 0.5 0.625 0.875 0.5 0.625 1 0.5 0.625 0 0.625 0.625 0.125 0.625 0.625 0.25 0.625 0.625 0.375 0.625 0.625 0.5 0.625 0.625 0.625 0.625 0.625 0.75 0.625 0.625 0.875 0.625 0.625 1 0.625 0.625 0 0.75 0.625 0.125 0.75 0.625 0.25 0.75 0.625 0.375 0.75 0.625 0.5 0.75 0.625 0.625 0.75 0.625 0.75 0.75 0.625 0.875 0.75 0.625 1 0.75 0.625 0 0.875 0.625 0.125 0.875 0.625 0.25 0.875 0.625 0.375 0.875 0.625 0.5 0.875 0.625 0.625 0.875 0.625 0.75 0.875 0.625 0.875 0.875 0.625 1 0.875 0.625 0 1 0.625 0.125 1 0.625 0.25 1 0.625 0.375 1 0.625 0.5 1 0.625 0.625 1 0.625 0.75 1 0.625 0.875 1 0.625 1 1 0.625 0 0 0.75 0.125 0 0.75 0.25 0 0.75 0.375 0 0.75 0.5 0 0.75 0.625 0 0.75 0.75 0 0.75 0.875 0 0.75 1 0 0.75 0 0.125 0.75 0.125 0.125 0.75 0.25 0.125 0.75 0.375 0.125 0.75 0.5 0.125 0.75 0.625 0.125 0.75 0.75 0.125 0.75 0.875 0.125 0.75 1 0.125 0.75 0 0.25 0.75 0.125 0.25 0.75 0.25 0.25 0.75 0.375 0.25 0.75 0.5 0.25 0.75 0.625 0.25 0.75 0.75 0.25 0.75 0.875 0.25 0.75 1 0.25 0.75 0 0.375 0.75 0.125 0.375 0.75 0.25 0.375 0.75 0.375 0.375 0.75 0.5 0.375 0.75 0.625 0.375 0.75 0.75 0.375 0.75 0.875 0.375 0.75 1 0.375 0.75 0 0.5 0.75 0.125 0.5 0.75 0.25 0.5 0.75 0.375 0.5 0.75 0.5 0.5 0.75 0.625 0.5 0.75 0.75 0.5 0.75 0.875 0.5 0.75 1 0.5 0.75 0 0.625 0.75 0.125 0.625 0.75 0.25 0.625 0.75 0.375 0.625 0.75 0.5 0.625 0.75 0.625 0.625 0.75 0.75 0.625 0.75 0.875 0.625 0.75 1 0.625 0.75 0 0.75 0.75 0.125 0.75 0.75 0.25 0.75 0.75 0.375 0.75 0.75 0.5 0.75 0.75 0.625 0.75 0.75 0.75 0.75 0.75 0.875 0.75 0.75 1 0.75 0.75 0 0.875 0.75 0.125 0.875 0.75 0.25 0.875 0.75 0.375 0.875 0.75 0.5 0.875 0.75 0.625 0.875 0.75 0.75 0.875 0.75 0.875 0.875 0.75 1 0.875 0.75 0 1 0.75 0.125 1 0.75 0.25 1 0.75 0.375 1 0.75 0.5 1 0.75 0.625 1 0.75 0.75 1 0.75 0.875 1 0.75 1 1 0.75 0 0 0.875 0.125 0 0.875 0.25 0 0.875 0.375 0 0.875 0.5 0 0.875 0.625 0 0.875 0.75 0 0.875 0.875 0 0.875 1 0 0.875 0 0.125 0.875 0.125 0.125 0.875 0.25 0.125 0.875 0.375 0.125 0.875 0.5 0.125 0.875 0.625 0.125 0.875 0.75 0.125 0.875 0.875 0.125 0.875 1 0.125 0.875 0 0.25 0.875 0.125 0.25 0.875 0.25 0.25 0.875 0.375 0.25 0.875 0.5 0.25 0.875 0.625 0.25 0.875 0.75 0.25 0.875 0.875 0.25 0.875 1 0.25 0.875 0 0.375 0.875 0.125 0.375 0.875 0.25 0.375 0.875 0.375 0.375 0.875 0.5 0.375 0.875 0.625 0.375 0.875 0.75 0.375 0.875 0.875 0.375 0.875 1 0.375 0.875 0 0.5 0.875 0.125 0.5 0.875 0.25 0.5 0.875 0.375 0.5 0.875 0.5 0.5 0.875 0.625 0.5 0.875 0.75 0.5 0.875 0.875 0.5 0.875 1 0.5 0.875 0 0.625 0.875 0.125 0.625 0.875 0.25 0.625 0.875 0.375 0.625 0.875 0.5 0.625 0.875 0.625 0.625 0.875 0.75 0.625 0.875 0.875 0.625 0.875 1 0.625 0.875 0 0.75 0.875 0.125 0.75 0.875 0.25 0.75 0.875 0.375 0.75 0.875 0.5 0.75 0.875 0.625 0.75 0.875 0.75 0.75 0.875 0.875 0.75 0.875 1 0.75 0.875 0 0.875 0.875 0.125 0.875 0.875 0.25 0.875 0.875 0.375 0.875 0.875 0.5 0.875 0.875 0.625 0.875 0.875 0.75 0.875 0.875 0.875 0.875 0.875 1 0.875 0.875 0 1 0.875 0.125 1 0.875 0.25 1 0.875 0.375 1 0.875 0.5 1 0.875 0.625 1 0.875 0.75 1 0.875 0.875 1 0.875 1 1 0.875 0 0 1 0.125 0 1 0.25 0 1 0.375 0 1 0.5 0 1 0.625 0 1 0.75 0 1 0.875 0 1 1 0 1 0 0.125 1 0.125 0.125 1 0.25 0.125 1 0.375 0.125 1 0.5 0.125 1 0.625 0.125 1 0.75 0.125 1 0.875 0.125 1 1 0.125 1 0 0.25 1 0.125 0.25 1 0.25 0.25 1 0.375 0.25 1 0.5 0.25 1 0.625 0.25 1 0.75 0.25 1 0.875 0.25 1 1 0.25 1 0 0.375 1 0.125 0.375 1 0.25 0.375 1 0.375 0.375 1 0.5 0.375 1 0.625 0.375 1 0.75 0.375 1 0.875 0.375 1 1 0.375 1 0 0.5 1 0.125 0.5 1 0.25 0.5 1 0.375 0.5 1 0.5 0.5 1 0.625 0.5 1 0.75 0.5 1 0.875 0.5 1 1 0.5 1 0 0.625 1 0.125 0.625 1 0.25 0.625 1 0.375 0.625 1 0.5 0.625 1 0.625 0.625 1 0.75 0.625 1 0.875 0.625 1 1 0.625 1 0 0.75 1 0.125 0.75 1 0.25 0.75 1 0.375 0.75 1 0.5 0.75 1 0.625 0.75 1 0.75 0.75 1 0.875 0.75 1 1 0.75 1 0 0.875 1 0.125 0.875 1 0.25 0.875 1 0.375 0.875 1 0.5 0.875 1 0.625 0.875 1 0.75 0.875 1 0.875 0.875 1 1 0.875 1 0 1 1 0.125 1 1 0.25 1 1 0.375 1 1 0.5 1 1 0.625 1 1 0.75 1 1 0.875 1 1 1 1 1         </DataArray>
      </Points>
    </Piece>
  </StructuredGrid>
</VTKFile>
