<?xml version="1.0"?>
<VTKFile type="StructuredGrid" version="0.1" byte_order="LittleEndian">
  <StructuredGrid WholeExtent="0 8 0 8 0 8">
    <Piece Extent="0 8 0 8 0 8">
      <PointData>
      </PointData>
      <CellData>
        <DataArray Name="vy" NumberOfComponents="1" type="Float32" format="ascii">
0.41024559022118445295 0.67885510839594465082 0.72640429124869465571 0.73005626680178370425 0.73005624533166968426 0.72640430856024573725 0.67885509550290856762 0.41024558896512458572 0.41681925013291715176 0.68291611644213900956 0.73293820608297788333 0.73782232045930429276 0.73782234273764379928 0.73293818486920159216 0.682916130664026233 0.41681924306126061364 0.3981502818611667438 0.66723116371073964981 0.72140983927668500542 0.72756743803168710816 0.72756739376586831991 0.72140987767169006961 0.66723113377290199644 0.39815028718796185991 0.38277961682218758499 0.64969727573506086404 0.70700089647264985349 0.71405044090122871125 0.71405047462634174682 0.70700086482050172876 0.64969729830587252817 0.38277960617405026866 0.37702026260007243108 0.64302945602685490645 0.7028410854570484867 0.71066368173971417033 0.71066365486804372598 0.70284110969489033138 0.64302943640891807586 0.37702027221528428003 0.36020492716806939981 0.62277086135418913138 0.68482208429853463905 0.69360970040977376616 0.69360970170082270059 0.68482208071879790978 0.62277086387729041483 0.36020492293051248334 0.37352633627853187859 0.63650676086416979604 0.69781184460840728345 0.70657494614701532587 0.70657493744373434108 0.69781185093645536899 0.63650675341732021462 0.37352634000544371329 0.33648583706645279756 0.59273977946871558853 0.65531424493591261538 0.66517883653354104023 0.66517880728841483062 0.65531426630831346447 0.59273976483964252449 0.336485841943036601 0.67885510831350570626 1.1292277387261788757 1.205166306177636093 1.2100956311668489285 1.2100954384492814686 1.2051664626510876221 1.1292276191143546527 0.67885509546500322209 0.68291611643217575711 1.1387715044547543908 1.2207879865242272643 1.2275221514285457047 1.227521868104322067 1.2207882275012216233 1.1387713212448722366 0.68291613065980527608 0.66723116370746426984 1.1375406852903064969 1.2280588111607810831 1.2369511510023858403 1.2369510912901360289 1.2280588525940889788 1.137540655048014937 0.6672311337717912183 0.64969727580986491589 1.1297025682241021993 1.2281967007062970509 1.2389443886902336001 1.2389442070912954907 1.228196855046149949 1.1297024470204146684 0.64969729834107314836 0.64302945606583927773 1.1316060679205779405 1.237221616932359769 1.2495582198709336286 1.2495581998547766744 1.23722162425505533 1.1316060592295367204 0.64302943642755427955 0.62277086145077620305 1.1172100652844347835 1.2308561019444175244 1.2453872326807644555 1.2453871716195465957 1.2308561513936093768 1.1172100181346749093 0.62277086392249358937 0.63650676092038627196 1.1334697157150239732 1.2488742947338020706 1.2638613789707582313 1.2638613211529783342 1.2488743376468569579 1.1334696861993505124 0.63650675344358198515 0.59273977958336399041 1.091693460027401974 1.2157415435572442863 1.234201142726153666 1.2342011782555095678 1.2157415078269611097 1.091693471692039008 0.59273976489298840775 0.72640429146026008755 1.205166303814580786 1.2849967725125697182 1.2899647820819775124 1.2899650399109949817 1.2849965628242052684 1.2051664615554535942 0.72640430865864413779 0.7329382060786976405 1.2207879848158003089 1.3075473783543232198 1.3143962170569287728 1.3143965911098538513 1.3075470596665021983 1.220788226709150992 0.7329381848676083111 0.72140983927221824512 1.2280588097821358851 1.3242862732422879812 1.3334121658238062835 1.3334122501457144061 1.3242862133119903678 1.2280588519549968662 0.72140987767014985721 0.70700089628144946463 1.2281966999343247871 1.3333926322652220886 1.3444579206754045941 1.3444581530574606365 1.33339243338331781 1.2281968546884045601 0.70700086473250656205 0.70284108542984324863 1.2372216162395595074 1.3506284753889736816 1.3633400571838949489 1.363340080611260996 1.3506284659909879586 1.2372216239342539446 0.70284110968340185455 0.68482208407396827354 1.2308561016764565377 1.3539601165545627204 1.369037796480984337 1.3690378576014974321 1.3539600658003823064 1.2308561512708513508 0.68482208061588900616 0.69781184457576517222 1.2488742943288622111 1.3747398725474877512 1.3903191662915921345 1.390319253375454478 1.3747398043600571604 1.248874337461326034 0.69781185092240938239 0.65531424464680154696 1.2157415435166549766 1.3531662649493683137 1.3726484197515422814 1.3726483484704319338 1.3531663271809111215 1.2157415078108428919 0.65531426617537447132 0.73005626638633713821 1.2100956374028675189 1.2899647775568598984 1.2948493344769038682 1.2948490138612021028 1.289965037813111115 1.2100954413400510923 0.73005624513886102633 0.73782232046706985873 1.2275221559395415039 1.3143962138129963169 1.3211674811621234582 1.3211670385477116696 1.3143965896056151177 1.227521870195069198 0.73782234274147573405 0.72756743802155676715 1.2369511546061726648 1.3334121632566933169 1.34248259101916112 1.3424824730152162822 1.3334122489559090408 1.2369510929610081362 0.72756739376159818011 0.71405044121693406201 1.2389443906203363444 1.3444579193696581942 1.3554695957364260028 1.3554693213600363944 1.3444581524524654714 1.2389442079860299994 0.71405047477343153162 0.71066368170722271635 1.2495582214873908189 1.3633400561524240402 1.375970712491009218 1.3759706684916563901 1.3633400801305064487 1.2495582006033578715 0.71066365485412519298 0.69360970076719785649 1.2453872331439543863 1.3690377962955482261 1.3840237473443128824 1.3840236713531706148 1.3690378575129720229 1.2453871718338291874 0.6936097018687331639 0.7065749460969250606 1.2638613796974611514 1.3903191658898361727 1.4057675168384307085 1.4057674042827268401 1.3903192531923862507 1.2638613214942180374 0.70657493742467236686 0.66517883702716029681 1.2342011424130132635 1.3726484202587811989 1.3919343386849949429 1.3919344173618117821 1.3726483487131055927 1.2342011781185218133 0.66517880752186842042 0.73005624590399598173 1.2100954285723228843 1.2899650493275429675 1.2948490080065517827 1.2948493317619698129 1.2899647864485752624 1.2100956265866009698 0.73005626706759907396 0.73782234271503155387 1.2275218609895373056 1.3143965978815130846 1.3211670343024546348 1.3211674791933203377 1.3143962201960748271 1.2275221481294009696 0.73782232044947915206 0.72756739377218859754 1.236951085605461742 1.3334122555329943616 1.3424824696162895865 1.3424825894433929374 1.3334121683221265009 1.2369511483667916529 0.72756743803548939997 0.71405047417241485075 1.2389442040323102034 1.3444581559056894005 1.3554693194445064375 1.3554695948483099777 1.3444579219959464922 1.2389443872718852724 0.7140504406915140212 0.71066365492069116794 1.2495581972327360898 1.3633400829583344205 1.3759706668720927958 1.3759707117382213859 1.3633400582695369696 1.2495582186541778213 0.71066368176538230461 0.69360970117061282458 1.2453871708015915587 1.3690378582136129015 1.3840236707433062335 1.3840237470597485103 1.3690377967627722633 1.2453872323012900036 0.69360970016581391384 0.70657493751850519725 1.2638613198420496353 1.3903192544808424813 1.4057674033665650271 1.4057675164158160985 1.390319166808921203 1.2638613783668863899 0.70657494618539085085 0.66517880654701133647 1.2342011785718927097 1.3726483476945556816 1.3919344175438044253 1.3919343387752101115 1.3726484194005410533 1.2342011428811507923 0.66517883619495155045 0.72640430793275623245 1.205166473718713549 1.284996551199315995 1.2899650472285619784 1.2899647819224238088 1.2849967671233077926 1.2051663113098332047 0.72640429095816660965 0.73293818489405759831 1.2207882354123464896 1.3075470513941795936 1.3143965963768804439 1.3143962169518019767 1.3075473745197370157 1.2207879901924465482 0.73293820609508053554 0.72140987762220287749 1.2280588589001206756 1.3242862067426730555 1.3334122543426072394 1.3334121657544566464 1.3242862701969766448 1.2280588140850359213 0.72140983925420121281 0.70700086525267968884 1.2281968582695663716 1.333392430050955646 1.3444581552997640905 1.3444579206892770529 1.3333926307207579764 1.2281967022009876445 0.70700089667374610425 0.70284110953344680617 1.2372216270151294992 1.3506284632028282555 1.3633400824787202943 1.363340057239196712 1.3506284740968572677 1.2372216182133137785 0.70284108538302236813 0.68482208120374132854 1.2308561520127467848 1.3539600652145682425 1.3690378581260211899 1.369037796578220112 1.3539601162857528571 1.2308561022332920043 0.68482208452410620048 0.69781185072314655393 1.2488743388544727431 1.3747398030636521771 1.3903192542953615174 1.3903191664047045428 1.3747398719498755693 1.2488742952952849308 0.69781184450907507433 0.65531426700341510738 1.2157415070503891918 1.3531663282712333984 1.3726483479341353711 1.3726484199046609103 1.3531662654594338591 1.2157415431981701825 0.65531424525820269888 0.67885509602431481913 1.1292276090906285813 1.2051664726232640401 1.2100954314629464026 1.2100956328221601499 1.2051663089469855095 1.1292277340786556206 0.6788551086378463717 0.6829161306217931271 1.1387713141043858123 1.2207882346204899093 1.2275218630803439446 1.2275221526401576266 1.2207879884842445239 1.1387715011446093438 0.68291611642287652906 0.6672311337725493896 1.1375406493470312519 1.2280588582611349224 1.2369510872762836673 1.2369511519702953706 1.2280588127064919757 1.1375406826473195565 0.6672311637110084348 0.64969729787549601596 1.1297024440910625742 1.2281968579118900387 1.2389442049269014934 1.238944389201621421 1.2281967014290768869 1.1297025668668219112 0.64969727553593126235 0.64302943649233379464 1.1316060566188654857 1.2372216266945628149 1.2495581979816645646 1.2495582202708290787 1.237221617520743111 1.1316060667111644822 0.64302945606607297968 0.62277086340079046423 1.1172100174278352114 1.2308561518901273146 1.2453871710161681374 1.2453872327646648976 1.230856101965467575 1.1172100649576262033 0.62277086113288693259 0.63650675355468400163 1.1334696849720800049 1.2488743386687053416 1.2638613201824615562 1.2638613790926631619 1.2488742948901181418 1.1334697151451371688 0.63650676092637648029 0.59273976424515684158 1.0916934719376565344 1.2157415070339718799 1.2342011784334987468 1.2342011425664347612 1.2157415431572800024 1.0916934601398426974 0.59273977919106080048 0.4102455890751050549 0.67885509598640469964 0.72640430803129063531 0.73005624571154514868 0.73005626665181511115 0.72640429116968174839 0.67885510855540154296 0.41024559027228657548 0.4168192430945385496 0.68291613061753109193 0.73293818489257345217 0.73782234271913216261 0.73782232045693540989 0.73293820609074533667 0.68291611641286775747 0.41681925014863840939 0.39815028711027328212 0.66723113377141995972 0.72140987762076314027 0.72756739376814139053 0.72756743802515044806 0.72140983924971002761 0.66723116370770285677 0.3981502818254324394 0.38277960613141520652 0.64969729791068209224 0.70700086516476079446 0.71405047431950097181 0.7140504410069343777 0.70700089648254293984 0.64969727561070245159 0.38277961680271527234 0.37702027211134420126 0.64302943651087351995 0.70284110952193201705 0.71066365490668204075 0.71066368173264438113 0.70284108535575329224 0.64302945610494188777 0.37702026255207382599 0.36020492298851025659 0.62277086344595289358 0.68482208110077491536 0.69360970133849697561 0.6936097005230440482 0.68482208429946644923 0.62277086122940572555 0.36020492719468943932 0.37352633997861273141 0.63650675358107311474 0.69781185070918660962 0.7065749374990607512 0.70657494613483551316 0.69781184447652711 0.63650676098269043379 0.37352633626496806185 0.33648584223359273571 0.59273976429860697479 0.65531426687057381386 0.6651788067796915449 0.66517883668725275026 0.65531424496911927502 0.59273977930579535567 0.3364858371999985831 
        </DataArray>
      </CellData>
      <Points>
        <DataArray Name="m" NumberOfComponents="3" type="Float32" format="ascii">
0 0 0 0.125 0 0 0.25 0 0 0.375 0 0 0.5 0 0 0.625 0 0 0.75 0 0 0.875 0 0 1 0 0 0 0.125 0 0.125 0.125 0 0.25 0.125 0 0.375 0.125 0 0.5 0.125 0 0.625 0.125 0 0.75 0.125 0 0.875 0.125 0 1 0.125 0 0 0.25 0 0.125 0.25 0 0.25 0.25 0 0.375 0.25 0 0.5 0.25 0 0.625 0.25 0 0.75 0.25 0 0.875 0.25 0 1 0.25 0 0 0.375 0 0.125 0.375 0 0.25 0.375 0 0.375 0.375 0 0.5 0.375 0 0.625 0.375 0 0.75 0.375 0 0.875 0.375 0 1 0.375 0 0 0.5 0 0.125 0.5 0 0.25 0.5 0 0.375 0.5 0 0.5 0.5 0 0.625 0.5 0 0.75 0.5 0 0.875 0.5 0 1 0.5 0 0 0.625 0 0.125 0.625 0 0.25 0.625 0 0.375 0.625 0 0.5 0.625 0 0.625 0.625 0 0.75 0.625 0 0.875 0.625 0 1 0.625 0 0 0.75 0 0.125 0.75 0 0.25 0.75 0 0.375 0.75 0 0.5 0.75 0 0.625 0.75 0 0.75 0.75 0 0.875 0.75 0 1 0.75 0 0 0.875 0 0.125 0.875 0 0.25 0.875 0 0.375 0.875 0 0.5 0.875 0 0.625 0.875 0 0.75 0.875 0 0.875 0.875 0 1 0.875 0 0 1 0 0.125 1 0 0.25 1 0 0.375 1 0 0.5 1 0 0.625 1 0 0.75 1 0 0.875 1 0 1 1 0 0 0 0.125 0.125 0 0.125 0.25 0 0.125 0.375 0 0.125 0.5 0 0.125 0.625 0 0.125 0.75 0 0.125 0.875 0 0.125 1 0 0.125 0 0.125 0.125 0.125 0.125 0.125 0.25 0.125 0.125 0.375 0.125 0.125 0.5 0.125 0.125 0.625 0.125 0.125 0.75 0.125 0.125 0.875 0.125 0.125 1 0.125 0.125 0 0.25 0.125 0.125 0.25 0.125 0.25 0.25 0.125 0.375 0.25 0.125 0.5 0.25 0.125 0.625 0.25 0.125 0.75 0.25 0.125 0.875 0.25 0.125 1 0.25 0.125 0 0.375 0.125 0.125 0.375 0.125 0.25 0.375 0.125 0.375 0.375 0.125 0.5 0.375 0.125 0.625 0.375 0.125 0.75 0.375 0.125 0.875 0.375 0.125 1 0.375 0.125 0 0.5 0.125 0.125 0.5 0.125 0.25 0.5 0.125 0.375 0.5 0.125 0.5 0.5 0.125 0.625 0.5 0.125 0.75 0.5 0.125 0.875 0.5 0.125 1 0.5 0.125 0 0.625 0.125 0.125 0.625 0.125 0.25 0.625 0.125 0.375 0.625 0.125 0.5 0.625 0.125 0.625 0.625 0.125 0.75 0.625 0.125 0.875 0.625 0.125 1 0.625 0.125 0 0.75 0.125 0.125 0.75 0.125 0.25 0.75 0.125 0.375 0.75 0.125 0.5 0.75 0.125 0.625 0.75 0.125 0.75 0.75 0.125 0.875 0.75 0.125 1 0.75 0.125 0 0.875 0.125 0.125 0.875 0.125 0.25 0.875 0.125 0.375 0.875 0.125 0.5 0.875 0.125 0.625 0.875 0.125 0.75 0.875 0.125 0.875 0.875 0.125 1 0.875 0.125 0 1 0.125 0.125 1 0.125 0.25 1 0.125 0.375 1 0.125 0.5 1 0.125 0.625 1 0.125 0.75 1 0.125 0.875 1 0.125 1 1 0.125 0 0 0.25 0.125 0 0.25 0.25 0 0.25 0.375 0 0.25 0.5 0 0.25 0.625 0 0.25 0.75 0 0.25 0.875 0 0.25 1 0 0.25 0 0.125 0.25 0.125 0.125 0.25 0.25 0.125 0.25 0.375 0.125 0.25 0.5 0.125 0.25 0.625 0.125 0.25 0.75 0.125 0.25 0.875 0.125 0.25 1 0.125 0.25 0 0.25 0.25 0.125 0.25 0.25 0.25 0.25 0.25 0.375 0.25 0.25 0.5 0.25 0.25 0.625 0.25 0.25 0.75 0.25 0.25 0.875 0.25 0.25 1 0.25 0.25 0 0.375 0.25 0.125 0.375 0.25 0.25 0.375 0.25 0.375 0.375 0.25 0.5 0.375 0.25 0.625 0.375 0.25 0.75 0.375 0.25 0.875 0.375 0.25 1 0.375 0.25 0 0.5 0.25 0.125 0.5 0.25 0.25 0.5 0.25 0.375 0.5 0.25 0.5 0.5 0.25 0.625 0.5 0.25 0.75 0.5 0.25 0.875 0.5 0.25 1 0.5 0.25 0 0.625 0.25 0.125 0.625 0.25 0.25 0.625 0.25 0.375 0.625 0.25 0.5 0.625 0.25 0.625 0.625 0.25 0.75 0.625 0.25 0.875 0.625 0.25 1 0.625 0.25 0 0.75 0.25 0.125 0.75 0.25 0.25 0.75 0.25 0.375 0.75 0.25 0.5 0.75 0.25 0.625 0.75 0.25 0.75 0.75 0.25 0.875 0.75 0.25 1 0.75 0.25 0 0.875 0.25 0.125 0.875 0.25 0.25 0.875 0.25 0.375 0.875 0.25 0.5 0.875 0.25 0.625 0.875 0.25 0.75 0.875 0.25 0.875 0.875 0.25 1 0.875 0.25 0 1 0.25 0.125 1 0.25 0.25 1 0.25 0.375 1 0.25 0.5 1 0.25 0.625 1 0.25 0.75 1 0.25 0.875 1 0.25 1 1 0.25 0 0 0.375 0.125 0 0.375 0.25 0 0.375 0.375 0 0.375 0.5 0 0.375 0.625 0 0.375 0.75 0 0.375 0.875 0 0.375 1 0 0.375 0 0.125 0.375 0.125 0.125 0.375 0.25 0.125 0.375 0.375 0.125 0.375 0.5 0.125 0.375 0.625 0.125 0.375 0.75 0.125 0.375 0.875 0.125 0.375 1 0.125 0.375 0 0.25 0.375 0.125 0.25 0.375 0.25 0.25 0.375 0.375 0.25 0.375 0.5 0.25 0.375 0.625 0.25 0.375 0.75 0.25 0.375 0.875 0.25 0.375 1 0.25 0.375 0 0.375 0.375 0.125 0.375 0.375 0.25 0.375 0.375 0.375 0.375 0.375 0.5 0.375 0.375 0.625 0.375 0.375 0.75 0.375 0.375 0.875 0.375 0.375 1 0.375 0.375 0 0.5 0.375 0.125 0.5 0.375 0.25 0.5 0.375 0.375 0.5 0.375 0.5 0.5 0.375 0.625 0.5 0.375 0.75 0.5 0.375 0.875 0.5 0.375 1 0.5 0.375 0 0.625 0.375 0.125 0.625 0.375 0.25 0.625 0.375 0.375 0.625 0.375 0.5 0.625 0.375 0.625 0.625 0.375 0.75 0.625 0.375 0.875 0.625 0.375 1 0.625 0.375 0 0.75 0.375 0.125 0.75 0.375 0.25 0.75 0.375 0.375 0.75 0.375 0.5 0.75 0.375 0.625 0.75 0.375 0.75 0.75 0.375 0.875 0.75 0.375 1 0.75 0.375 0 0.875 0.375 0.125 0.875 0.375 0.25 0.875 0.375 0.375 0.875 0.375 0.5 0.875 0.375 0.625 0.875 0.375 0.75 0.875 0.375 0.875 0.875 0.375 1 0.875 0.375 0 1 0.375 0.125 1 0.375 0.25 1 0.375 0.375 1 0.375 0.5 1 0.375 0.625 1 0.375 0.75 1 0.375 0.875 1 0.375 1 1 0.375 0 0 0.5 0.125 0 0.5 0.25 0 0.5 0.375 0 0.5 0.5 0 0.5 0.625 0 0.5 0.75 0 0.5 0.875 0 0.5 1 0 0.5 0 0.125 0.5 0.125 0.125 0.5 0.25 0.125 0.5 0.375 0.125 0.5 0.5 0.125 0.5 0.625 0.125 0.5 0.75 0.125 0.5 0.875 0.125 0.5 1 0.125 0.5 0 0.25 0.5 0.125 0.25 0.5 0.25 0.25 0.5 0.375 0.25 0.5 0.5 0.25 0.5 0.625 0.25 0.5 0.75 0.25 0.5 0.875 0.25 0.5 1 0.25 0.5 0 0.375 0.5 0.125 0.375 0.5 0.25 0.375 0.5 0.375 0.375 0.5 0.5 0.375 0.5 0.625 0.375 0.5 0.75 0.375 0.5 0.875 0.375 0.5 1 0.375 0.5 0 0.5 0.5 0.125 0.5 0.5 0.25 0.5 0.5 0.375 0.5 0.5 0.5 0.5 0.5 0.625 0.5 0.5 0.75 0.5 0.5 0.875 0.5 0.5 1 0.5 0.5 0 0.625 0.5 0.125 0.625 0.5 0.25 0.625 0.5 0.375 0.625 0.5 0.5 0.625 0.5 0.625 0.625 0.5 0.75 0.625 0.5 0.875 0.625 0.5 1 0.625 0.5 0 0.75 0.5 0.125 0.75 0.5 0.25 0.75 0.5 0.375 0.75 0.5 0.5 0.75 0.5 0.625 0.75 0.5 0.75 0.75 0.5 0.875 0.75 0.5 1 0.75 0.5 0 0.875 0.5 0.125 0.875 0.5 0.25 0.875 0.5 0.375 0.875 0.5 0.5 0.875 0.5 0.625 0.875 0.5 0.75 0.875 0.5 0.875 0.875 0.5 1 0.875 0.5 0 1 0.5 0.125 1 0.5 0.25 1 0.5 0.375 1 0.5 0.5 1 0.5 0.625 1 0.5 0.75 1 0.5 0.875 1 0.5 1 1 0.5 0 0 0.625 0.125 0 0.625 0.25 0 0.625 0.375 0 0.625 0.5 0 0.625 0.625 0 0.625 0.75 0 0.625 0.875 0 0.625 1 0 0.625 0 0.125 0.625 0.125 0.125 0.625 0.25 0.125 0.625 0.375 0.125 0.625 0.5 0.125 0.625 0.625 0.125 0.625 0.75 0.125 0.625 0.875 0.125 0.625 1 0.125 0.625 0 0.25 0.625 0.125 0.25 0.625 0.25 0.25 0.625 0.375 0.25 0.625 0.5 0.25 0.625 0.625 0.25 0.625 0.75 0.25 0.625 0.875 0.25 0.625 1 0.25 0.625 0 0.375 0.625 0.125 0.375 0.625 0.25 0.375 0.625 0.375 0.375 0.625 0.5 0.375 0.625 0.625 0.375 0.625 0.75 0.375 0.625 0.875 0.375 0.625 1 0.375 0.625 0 0.5 0.625 0.125 0.5 0.625 0.25 0.5 0.625 0.375 0.5 0.625 0.5 0.5 0.625 0.625 0.5 0.625 0.75 0.5 0.625 0.875 0.5 0.625 1 0.5 0.625 0 0.625 0.625 0.125 0.625 0.625 0.25 0.625 0.625 0.375 0.625 0.625 0.5 0.625 0.625 0.625 0.625 0.625 0.75 0.625 0.625 0.875 0.625 0.625 1 0.625 0.625 0 0.75 0.625 0.125 0.75 0.625 0.25 0.75 0.625 0.375 0.75 0.625 0.5 0.75 0.625 0.625 0.75 0.625 0.75 0.75 0.625 0.875 0.75 0.625 1 0.75 0.625 0 0.875 0.625 0.125 0.875 0.625 0.25 0.875 0.625 0.375 0.875 0.625 0.5 0.875 0.625 0.625 0.875 0.625 0.75 0.875 0.625 0.875 0.875 0.625 1 0.875 0.625 0 1 0.625 0.125 1 0.625 0.25 1 0.625 0.375 1 0.625 0.5 1 0.625 0.625 1 0.625 0.75 1 0.625 0.875 1 0.625 1 1 0.625 0 0 0.75 0.125 0 0.75 0.25 0 0.75 0.375 0 0.75 0.5 0 0.75 0.625 0 0.75 0.75 0 0.75 0.875 0 0.75 1 0 0.75 0 0.125 0.75 0.125 0.125 0.75 0.25 0.125 0.75 0.375 0.125 0.75 0.5 0.125 0.75 0.625 0.125 0.75 0.75 0.125 0.75 0.875 0.125 0.75 1 0.125 0.75 0 0.25 0.75 0.125 0.25 0.75 0.25 0.25 0.75 0.375 0.25 0.75 0.5 0.25 0.75 0.625 0.25 0.75 0.75 0.25 0.75 0.875 0.25 0.75 1 0.25 0.75 0 0.375 0.75 0.125 0.375 0.75 0.25 0.375 0.75 0.375 0.375 0.75 0.5 0.375 0.75 0.625 0.375 0.75 0.75 0.375 0.75 0.875 0.375 0.75 1 0.375 0.75 0 0.5 0.75 0.125 0.5 0.75 0.25 0.5 0.75 0.375 0.5 0.75 0.5 0.5 0.75 0.625 0.5 0.75 0.75 0.5 0.75 0.875 0.5 0.75 1 0.5 0.75 0 0.625 0.75 0.125 0.625 0.75 0.25 0.625 0.75 0.375 0.625 0.75 0.5 0.625 0.75 0.625 0.625 0.75 0.75 0.625 0.75 0.875 0.625 0.75 1 0.625 0.75 0 0.75 0.75 0.125 0.75 0.75 0.25 0.75 0.75 0.375 0.75 0.75 0.5 0.75 0.75 0.625 0.75 0.75 0.75 0.75 0.75 0.875 0.75 0.75 1 0.75 0.75 0 0.875 0.75 0.125 0.875 0.75 0.25 0.875 0.75 0.375 0.875 0.75 0.5 0.875 0.75 0.625 0.875 0.75 0.75 0.875 0.75 0.875 0.875 0.75 1 0.875 0.75 0 1 0.75 0.125 1 0.75 0.25 1 0.75 0.375 1 0.75 0.5 1 0.75 0.625 1 0.75 0.75 1 0.75 0.875 1 0.75 1 1 0.75 0 0 0.875 0.125 0 0.875 0.25 0 0.875 0.375 0 0.875 0.5 0 0.875 0.625 0 0.875 0.75 0 0.875 0.875 0 0.875 1 0 0.875 0 0.125 0.875 0.125 0.125 0.875 0.25 0.125 0.875 0.375 0.125 0.875 0.5 0.125 0.875 0.625 0.125 0.875 0.75 0.125 0.875 0.875 0.125 0.875 1 0.125 0.875 0 0.25 0.875 0.125 0.25 0.875 0.25 0.25 0.875 0.375 0.25 0.875 0.5 0.25 0.875 0.625 0.25 0.875 0.75 0.25 0.875 0.875 0.25 0.875 1 0.25 0.875 0 0.375 0.875 0.125 0.375 0.875 0.25 0.375 0.875 0.375 0.375 0.875 0.5 0.375 0.875 0.625 0.375 0.875 0.75 0.375 0.875 0.875 0.375 0.875 1 0.375 0.875 0 0.5 0.875 0.125 0.5 0.875 0.25 0.5 0.875 0.375 0.5 0.875 0.5 0.5 0.875 0.625 0.5 0.875 0.75 0.5 0.875 0.875 0.5 0.875 1 0.5 0.875 0 0.625 0.875 0.125 0.625 0.875 0.25 0.625 0.875 0.375 0.625 0.875 0.5 0.625 0.875 0.625 0.625 0.875 0.75 0.625 0.875 0.875 0.625 0.875 1 0.625 0.875 0 0.75 0.875 0.125 0.75 0.875 0.25 0.75 0.875 0.375 0.75 0.875 0.5 0.75 0.875 0.625 0.75 0.875 0.75 0.75 0.875 0.875 0.75 0.875 1 0.75 0.875 0 0.875 0.875 0.125 0.875 0.875 0.25 0.875 0.875 0.375 0.875 0.875 0.5 0.875 0.875 0.625 0.875 0.875 0.75 0.875 0.875 0.875 0.875 0.875 1 0.875 0.875 0 1 0.875 0.125 1 0.875 0.25 1 0.875 0.375 1 0.875 0.5 1 0.875 0.625 1 0.875 0.75 1 0.875 0.875 1 0.875 1 1 0.875 0 0 1 0.125 0 1 0.25 0 1 0.375 0 1 0.5 0 1 0.625 0 1 0.75 0 1 0.875 0 1 1 0 1 0 0.125 1 0.125 0.125 1 0.25 0.125 1 0.375 0.125 1 0.5 0.125 1 0.625 0.125 1 0.75 0.125 1 0.875 0.125 1 1 0.125 1 0 0.25 1 0.125 0.25 1 0.25 0.25 1 0.375 0.25 1 0.5 0.25 1 0.625 0.25 1 0.75 0.25 1 0.875 0.25 1 1 0.25 1 0 0.375 1 0.125 0.375 1 0.25 0.375 1 0.375 0.375 1 0.5 0.375 1 0.625 0.375 1 0.75 0.375 1 0.875 0.375 1 1 0.375 1 0 0.5 1 0.125 0.5 1 0.25 0.5 1 0.375 0.5 1 0.5 0.5 1 0.625 0.5 1 0.75 0.5 1 0.875 0.5 1 1 0.5 1 0 0.625 1 0.125 0.625 1 0.25 0.625 1 0.375 0.625 1 0.5 0.625 1 0.625 0.625 1 0.75 0.625 1 0.875 0.625 1 1 0.625 1 0 0.75 1 0.125 0.75 1 0.25 0.75 1 0.375 0.75 1 0.5 0.75 1 0.625 0.75 1 0.75 0.75 1 0.875 0.75 1 1 0.75 1 0 0.875 1 0.125 0.875 1 0.25 0.875 1 0.375 0.875 1 0.5 0.875 1 0.625 0.875 1 0.75 0.875 1 0.875 0.875 1 1 0.875 1 0 1 1 0.125 1 1 0.25 1 1 0.375 1 1 0.5 1 1 0.625 1 1 0.75 1 1 0.875 1 1 1 1 1         </DataArray>
      </Points>
    </Piece>
  </StructuredGrid>
</VTKFile>
