<?xml version="1.0"?>
<VTKFile type="StructuredGrid" version="0.1" byte_order="LittleEndian">
  <StructuredGrid WholeExtent="0 8 0 8 0 8">
    <Piece Extent="0 8 0 8 0 8">
      <PointData>
      </PointData>
      <CellData>
        <DataArray Name="vy" NumberOfComponents="1" type="Float32" format="ascii">
0.43422671448762484303 0.70346648054353522195 0.74488303346551421047 0.74578904645231525183 0.74578924081663544587 0.74488287776441075572 0.70346659910532283178 0.43422676454601988327 0.41717271264726424329 0.68798280135654543699 0.73403628531597397977 0.73633542840550114672 0.73633552701261872908 0.73403620837888106099 0.68798286460155366751 0.41717274751331367977 0.39963384647062655253 0.67027996660515742899 0.72131982987330600654 0.72517517162271172282 0.72517516309544349795 0.72131984143594363168 0.67027996488868268887 0.39963385573780846327 0.38641508732264223669 0.65553775074796039046 0.71058383364471311427 0.71580246600644170663 0.71580246179226214576 0.71058383575428862855 0.65553775163250593838 0.38641508435204824368 0.3752083528382053057 0.64202526175984453438 0.70005637600749570648 0.70650414615516954342 0.70650411575272786813 0.70005639941548214455 0.64202524151470408142 0.3752083452513184092 0.36732545590696796811 0.63190818779601853894 0.69228717981491183497 0.69989776313294405075 0.69989777362843508257 0.6922871706366577893 0.63190819319555291411 0.36732545253509801819 0.36428129107075635229 0.62628981195906041624 0.68644497050423858298 0.69442372873751967433 0.6944237525343524009 0.68644495376119085694 0.62628982114312503615 0.36428129079098975351 0.36222861403493311627 0.62208905231725075691 0.68197402163616183124 0.69032161250352930271 0.69032161899197530541 0.6819740233925252193 0.62208905442686190934 0.36222861478510515187 0.70346648175070047859 1.1515453852711514671 1.2178553979084572045 1.218343119896060367 1.2183421873099045118 1.2178561365663067573 1.1515448024764094459 0.70346659948483203362 0.68798280182239657243 1.1492812277597233006 1.224005079320670264 1.2263781852446553611 1.2263772723943935361 1.224005809892017238 1.1492806516805218475 0.6879828647498854588 0.67027996670918144062 1.144772384517169117 1.2294076350465754643 1.2340917667793056545 1.2340911336774917917 1.2294081375196683759 1.1447719970796756961 0.67027996492449992694 0.65553775022542304374 1.1406283675265600497 1.2345206638597743254 1.241426730746655327 1.2414262820592849579 1.2345210203097003454 1.1406280997627049612 0.65553775147551629487 0.64202526142972693446 1.1346626623906854725 1.2368590076556644775 1.2459618066110138557 1.2459615258895218037 1.2368592243562690491 1.1346625040885347513 0.64202524141995320761 0.63190818701981144034 1.1305569809938145198 1.2408187402946302402 1.2524287753606844209 1.2524286900336940587 1.240818802852512226 1.13055693726523665 0.63190819295951927703 0.62628981121294513557 1.1246161128946183805 1.2379534619996725997 1.2509519858245770063 1.2509519085942550909 1.2379535186967418614 1.1246160601962897907 0.62628982091022833423 0.62208905108996170874 1.1237627359441739738 1.2432942979876866474 1.2590954677551862151 1.2590955117499842419 1.2432942671010500657 1.123762755311504824 0.62208905404570868924 0.74488303051784898745 1.2178554259944798233 1.2870998809883169578 1.2873586128684268992 1.2873597292141807369 1.2870990146759035966 1.2178561453319338703 0.7448828768497660624 0.73403628505420137618 1.2240051006034349257 1.3023235646435948887 1.3044990681633759078 1.3045001777486249228 1.3023226928207036757 1.2240058165358620457 0.73403620830318527801 0.72131983061406113045 1.2294076511293876575 1.3185663584761631029 1.323111550709124451 1.323112332782042877 1.3185657551410119304 1.2294081425421730103 0.7213198416739891039 0.71058383607691066874 1.2345206735848899271 1.3338436715718753334 1.3405965402353858806 1.3405971113348491563 1.3338432335106464866 1.2345210233493388863 0.7105838365237477916 0.70005637742502557774 1.2368590149218257057 1.3456147547114940544 1.354567385080443831 1.3545677467587864395 1.3456144885156964275 1.2368592266250160172 0.7000563998710048752 0.69228718312798520618 1.2408187447430425454 1.3590885402706078811 1.3706058895534647402 1.3706060010416218908 1.3590884690529878576 1.2408188042491365977 0.69228717168722508912 0.68644497259746584117 1.237953465523152552 1.3604774631903389093 1.3734851108989953872 1.3734851904970817316 1.3604774121439833223 1.2379535198213875713 0.68644495443151165581 0.68197402662965111997 1.2432943009466905782 1.3738932247674164877 1.3898188360397558672 1.3898187728250948059 1.3738932782572970126 1.2432942680610938879 0.68197402497242576302 0.74578905200231981887 1.2183430506795194237 1.2873586589147645309 1.2874699938635778551 1.2874686100225194441 1.2873597435702481828 1.2183421657012323269 0.74578924254880785139 0.73633542871750357062 1.2263781332904812871 1.3044991017898242003 1.3065391393175334045 1.306537770628965367 1.3045001882327185161 1.2263772561768224723 0.73633552711407201929 0.72517517044335289 1.2340917276911316236 1.3231115757761855445 1.3275380996226973096 1.3275371250603831275 1.3231123406027789358 1.234091121482930431 0.72517516273431203988 0.71580246230151289843 1.2414267084717920397 1.3405965526499390439 1.3472156822383130059 1.3472149635864973938 1.3405971152170550464 1.2414262751186333489 0.71580246064556574126 0.70650414490907098575 1.2459617910610698566 1.3545673935215900574 1.3633556424029587006 1.3633551726498451817 1.3545677493620884579 1.2459615210113008654 0.70650411536647561572 0.69989775887810024013 1.2524287680172117021 1.3706058918508046141 1.3818963292799453235 1.38189617177829982 1.3706060017088359526 1.2524286877157480014 0.69989777232374794647 0.69442372792083673083 1.2509519826030768286 1.3734851094916398218 1.3862407203678590584 1.3862406059061036512 1.3734851900944722303 1.2509519076585191577 0.69442375233731834516 0.6903216065189713424 1.2590954688586493138 1.3898188268953362012 1.4053019631633256736 1.4053020387662198409 1.38981877006799448 1.2590955122179547931 0.69032161718842810494 0.74578923330377755452 1.2183422956295646422 1.2873596312172157496 1.2874686714810521515 1.287470013030651339 1.2873585822784374688 1.218343153687637459 0.74578904411076707426 0.73633552687937764425 1.2263773532478792205 1.3045001056982516996 1.3065378162141731977 1.30653915353497041 1.3044990456742886487 1.2263782104711675736 0.736335428370621492 0.72517516502811929513 1.2340911944881702844 1.3231122785287796617 1.3275371598171441523 1.3275381104670957999 1.323111533780182647 1.2340917857579183359 0.72517517223446448238 0.71580246746661413404 1.2414263168951111815 1.3405970825268032076 1.3472149835065114765 1.3472156884607235927 1.3405965312547654111 1.2414267416281037359 0.71580246778870759705 0.70650411822411141038 1.245961551139215695 1.3545677260566806321 1.3633551880512482235 1.3633556471795453824 1.3545673785885534723 1.245961814470009088 0.7065041469329824686 0.6998977807702644327 1.2524287031013490168 1.3706059924900877434 1.3818961807707630385 1.3818963320377812831 1.3706058868372266168 1.2524287794213238012 0.69989776538656423011 0.69442375449211490857 1.2509519157032971126 1.3734851878247620327 1.3862406120318087055 1.3862407223086607999 1.373485110114143426 1.2509519881128581265 0.69442372940686214466 0.69032162860185219966 1.2590955129668408574 1.3898187834876007951 1.4053020392857624721 1.405301963411999866 1.389818839482788615 1.2590954682589214908 0.69032161556884419351 0.74488288552871306791 1.2178560147834232019 1.2870991354590877176 1.287359645573594058 1.2873586283250846307 1.2870999186815910154 1.2178553599166996868 0.74488303590028015488 0.73403620803900626601 1.2240057195981450811 1.3023227806542141405 1.3045001161827165514 1.3044990793011155272 1.3023235920586395675 1.2240050511573103975 0.73403628522356856312 0.72131983958874623664 1.2294080701450240678 1.3185658204634433943 1.3231122863500366371 1.3231115588477762035 1.3185663788643837702 1.2294076140317971024 0.72131982930966909162 0.7105838305718685799 1.2345209832723387233 1.3338432666054600428 1.3405970864094538531 1.3405965436697409032 1.3338436819028194336 1.234520652312970368 0.71058383204598130067 0.70005639853965673236 1.2368591985148653656 1.345614512049883027 1.3545677286600237288 1.3545673870298009511 1.3456147620566645262 1.2368589996140628706 0.70005637575966073172 0.69228716541409796026 1.2408187921868834014 1.3590884773200333502 1.3706059931571408228 1.3706058891343702033 1.3590885428651695577 1.2408187370023209262 0.69228717821061613868 0.68644495510355152401 1.2379535154779053308 1.3604774131568682094 1.3734851874218862999 1.373485108706784974 1.3604774635408365402 1.237953461027335722 0.68644497094369283374 0.68197401690305381461 1.2432942742843602346 1.3738932611099541337 1.3898187807299382523 1.3898188303387595255 1.373893219473742322 1.2432943002660221676 0.68197401964724113643 0.70346659094431662762 1.1515449162846405073 1.2178560235488455898 1.2183422740209910451 1.2183430844711395924 1.2178553880025337897 1.151545420798118613 0.70346647801115214094 0.68798286393676744144 1.1492807368229356335 1.2240057262417545214 1.2263773370306036981 1.2263781585170232535 1.224005072439864783 1.1492812543439878681 0.68798280116470789114 0.67027996625680164033 1.1447720606422113754 1.2294080751673952534 1.2340911822940918707 1.2340917466701668559 1.229407630114487171 1.1447724043632625524 0.67027996704687453633 0.65553775680449788421 1.1406281361398582508 1.2345209863119741556 1.2414263099550433278 1.2414267193537262823 1.2345206620380746454 1.1406283788952771285 0.65553775238297151695 0.64202524350255507635 1.1346625296544048389 1.2368592007836203273 1.2459615462612072534 1.2459617989202105282 1.236859006880219658 1.1346626704059148416 0.64202526241007007446 0.63190819926400310091 1.130556949230795416 1.2408187935834811277 1.252428700783176696 1.2524287720776121624 1.240818741450691931 1.130556984773632978 0.63190818971285500627 0.62628982179789405293 1.124616065704937995 1.2379535166024642212 1.2509519147668757277 1.250951984890702029 1.2379534645507368484 1.1246161146293740529 0.62628981217435886197 0.62208906124514051772 1.1237627583038038992 1.243294275244270386 1.2590955134339578692 1.2590954693616409621 1.2432943032249470505 1.1237627368951379481 0.62208905447367168762 0.43422676153284978096 0.70346659132407796111 0.74488288461475660185 0.74578923503923566507 0.74578904966397718823 0.74488303295329572062 0.70346647921857408114 0.43422671356004394205 0.41717274632984086002 0.68798286408532838276 0.73403620796377189173 0.7363355269827491778 0.73633542868453827346 0.73403628496226358546 0.68798280163078995297 0.41717271229165614477 0.399633855912224778 0.67027996629281594299 0.72131983982715353054 0.72517516466808229492 0.7251751710562392983 0.72131983005080912985 0.67027996715109494641 0.39963384653815003933 0.3864150854488958009 0.65553775664759716957 0.71058383134177449669 0.71580246632139610252 0.71580246408532610669 0.71058383447865414162 0.65553775186052476442 0.38641508768147908581 0.37520834655595863838 0.64202524340779842937 0.70005639899568261608 0.70650411783982092206 0.7065041456889172844 0.70005637717771862505 0.64202526207995136431 0.37520835326597884452 0.36732545387106713131 0.63190819902796668828 0.69228716646509780297 0.69989777946723763513 0.69989776113344825959 0.69228718152414125964 0.63190818893665234857 0.36732545634093793918 0.36428129143234755372 0.62628982156505841328 0.68644495577408937148 0.69442375429546987498 0.69442372859058520973 0.68644497303715712455 0.62628981142830730811 0.3642812912859725305 0.3622286122274184228 0.62208906086410320491 0.68197401848297711791 0.69032162679773456659 0.69032160958368937731 0.68197402464077561124 0.62208905324649577118 0.36222861326606453636 
        </DataArray>
      </CellData>
      <Points>
        <DataArray Name="m" NumberOfComponents="3" type="Float32" format="ascii">
0 0 0 0.125 0 0 0.25 0 0 0.375 0 0 0.5 0 0 0.625 0 0 0.75 0 0 0.875 0 0 1 0 0 0 0.125 0 0.125 0.125 0 0.25 0.125 0 0.375 0.125 0 0.5 0.125 0 0.625 0.125 0 0.75 0.125 0 0.875 0.125 0 1 0.125 0 0 0.25 0 0.125 0.25 0 0.25 0.25 0 0.375 0.25 0 0.5 0.25 0 0.625 0.25 0 0.75 0.25 0 0.875 0.25 0 1 0.25 0 0 0.375 0 0.125 0.375 0 0.25 0.375 0 0.375 0.375 0 0.5 0.375 0 0.625 0.375 0 0.75 0.375 0 0.875 0.375 0 1 0.375 0 0 0.5 0 0.125 0.5 0 0.25 0.5 0 0.375 0.5 0 0.5 0.5 0 0.625 0.5 0 0.75 0.5 0 0.875 0.5 0 1 0.5 0 0 0.625 0 0.125 0.625 0 0.25 0.625 0 0.375 0.625 0 0.5 0.625 0 0.625 0.625 0 0.75 0.625 0 0.875 0.625 0 1 0.625 0 0 0.75 0 0.125 0.75 0 0.25 0.75 0 0.375 0.75 0 0.5 0.75 0 0.625 0.75 0 0.75 0.75 0 0.875 0.75 0 1 0.75 0 0 0.875 0 0.125 0.875 0 0.25 0.875 0 0.375 0.875 0 0.5 0.875 0 0.625 0.875 0 0.75 0.875 0 0.875 0.875 0 1 0.875 0 0 1 0 0.125 1 0 0.25 1 0 0.375 1 0 0.5 1 0 0.625 1 0 0.75 1 0 0.875 1 0 1 1 0 0 0 0.125 0.125 0 0.125 0.25 0 0.125 0.375 0 0.125 0.5 0 0.125 0.625 0 0.125 0.75 0 0.125 0.875 0 0.125 1 0 0.125 0 0.125 0.125 0.125 0.125 0.125 0.25 0.125 0.125 0.375 0.125 0.125 0.5 0.125 0.125 0.625 0.125 0.125 0.75 0.125 0.125 0.875 0.125 0.125 1 0.125 0.125 0 0.25 0.125 0.125 0.25 0.125 0.25 0.25 0.125 0.375 0.25 0.125 0.5 0.25 0.125 0.625 0.25 0.125 0.75 0.25 0.125 0.875 0.25 0.125 1 0.25 0.125 0 0.375 0.125 0.125 0.375 0.125 0.25 0.375 0.125 0.375 0.375 0.125 0.5 0.375 0.125 0.625 0.375 0.125 0.75 0.375 0.125 0.875 0.375 0.125 1 0.375 0.125 0 0.5 0.125 0.125 0.5 0.125 0.25 0.5 0.125 0.375 0.5 0.125 0.5 0.5 0.125 0.625 0.5 0.125 0.75 0.5 0.125 0.875 0.5 0.125 1 0.5 0.125 0 0.625 0.125 0.125 0.625 0.125 0.25 0.625 0.125 0.375 0.625 0.125 0.5 0.625 0.125 0.625 0.625 0.125 0.75 0.625 0.125 0.875 0.625 0.125 1 0.625 0.125 0 0.75 0.125 0.125 0.75 0.125 0.25 0.75 0.125 0.375 0.75 0.125 0.5 0.75 0.125 0.625 0.75 0.125 0.75 0.75 0.125 0.875 0.75 0.125 1 0.75 0.125 0 0.875 0.125 0.125 0.875 0.125 0.25 0.875 0.125 0.375 0.875 0.125 0.5 0.875 0.125 0.625 0.875 0.125 0.75 0.875 0.125 0.875 0.875 0.125 1 0.875 0.125 0 1 0.125 0.125 1 0.125 0.25 1 0.125 0.375 1 0.125 0.5 1 0.125 0.625 1 0.125 0.75 1 0.125 0.875 1 0.125 1 1 0.125 0 0 0.25 0.125 0 0.25 0.25 0 0.25 0.375 0 0.25 0.5 0 0.25 0.625 0 0.25 0.75 0 0.25 0.875 0 0.25 1 0 0.25 0 0.125 0.25 0.125 0.125 0.25 0.25 0.125 0.25 0.375 0.125 0.25 0.5 0.125 0.25 0.625 0.125 0.25 0.75 0.125 0.25 0.875 0.125 0.25 1 0.125 0.25 0 0.25 0.25 0.125 0.25 0.25 0.25 0.25 0.25 0.375 0.25 0.25 0.5 0.25 0.25 0.625 0.25 0.25 0.75 0.25 0.25 0.875 0.25 0.25 1 0.25 0.25 0 0.375 0.25 0.125 0.375 0.25 0.25 0.375 0.25 0.375 0.375 0.25 0.5 0.375 0.25 0.625 0.375 0.25 0.75 0.375 0.25 0.875 0.375 0.25 1 0.375 0.25 0 0.5 0.25 0.125 0.5 0.25 0.25 0.5 0.25 0.375 0.5 0.25 0.5 0.5 0.25 0.625 0.5 0.25 0.75 0.5 0.25 0.875 0.5 0.25 1 0.5 0.25 0 0.625 0.25 0.125 0.625 0.25 0.25 0.625 0.25 0.375 0.625 0.25 0.5 0.625 0.25 0.625 0.625 0.25 0.75 0.625 0.25 0.875 0.625 0.25 1 0.625 0.25 0 0.75 0.25 0.125 0.75 0.25 0.25 0.75 0.25 0.375 0.75 0.25 0.5 0.75 0.25 0.625 0.75 0.25 0.75 0.75 0.25 0.875 0.75 0.25 1 0.75 0.25 0 0.875 0.25 0.125 0.875 0.25 0.25 0.875 0.25 0.375 0.875 0.25 0.5 0.875 0.25 0.625 0.875 0.25 0.75 0.875 0.25 0.875 0.875 0.25 1 0.875 0.25 0 1 0.25 0.125 1 0.25 0.25 1 0.25 0.375 1 0.25 0.5 1 0.25 0.625 1 0.25 0.75 1 0.25 0.875 1 0.25 1 1 0.25 0 0 0.375 0.125 0 0.375 0.25 0 0.375 0.375 0 0.375 0.5 0 0.375 0.625 0 0.375 0.75 0 0.375 0.875 0 0.375 1 0 0.375 0 0.125 0.375 0.125 0.125 0.375 0.25 0.125 0.375 0.375 0.125 0.375 0.5 0.125 0.375 0.625 0.125 0.375 0.75 0.125 0.375 0.875 0.125 0.375 1 0.125 0.375 0 0.25 0.375 0.125 0.25 0.375 0.25 0.25 0.375 0.375 0.25 0.375 0.5 0.25 0.375 0.625 0.25 0.375 0.75 0.25 0.375 0.875 0.25 0.375 1 0.25 0.375 0 0.375 0.375 0.125 0.375 0.375 0.25 0.375 0.375 0.375 0.375 0.375 0.5 0.375 0.375 0.625 0.375 0.375 0.75 0.375 0.375 0.875 0.375 0.375 1 0.375 0.375 0 0.5 0.375 0.125 0.5 0.375 0.25 0.5 0.375 0.375 0.5 0.375 0.5 0.5 0.375 0.625 0.5 0.375 0.75 0.5 0.375 0.875 0.5 0.375 1 0.5 0.375 0 0.625 0.375 0.125 0.625 0.375 0.25 0.625 0.375 0.375 0.625 0.375 0.5 0.625 0.375 0.625 0.625 0.375 0.75 0.625 0.375 0.875 0.625 0.375 1 0.625 0.375 0 0.75 0.375 0.125 0.75 0.375 0.25 0.75 0.375 0.375 0.75 0.375 0.5 0.75 0.375 0.625 0.75 0.375 0.75 0.75 0.375 0.875 0.75 0.375 1 0.75 0.375 0 0.875 0.375 0.125 0.875 0.375 0.25 0.875 0.375 0.375 0.875 0.375 0.5 0.875 0.375 0.625 0.875 0.375 0.75 0.875 0.375 0.875 0.875 0.375 1 0.875 0.375 0 1 0.375 0.125 1 0.375 0.25 1 0.375 0.375 1 0.375 0.5 1 0.375 0.625 1 0.375 0.75 1 0.375 0.875 1 0.375 1 1 0.375 0 0 0.5 0.125 0 0.5 0.25 0 0.5 0.375 0 0.5 0.5 0 0.5 0.625 0 0.5 0.75 0 0.5 0.875 0 0.5 1 0 0.5 0 0.125 0.5 0.125 0.125 0.5 0.25 0.125 0.5 0.375 0.125 0.5 0.5 0.125 0.5 0.625 0.125 0.5 0.75 0.125 0.5 0.875 0.125 0.5 1 0.125 0.5 0 0.25 0.5 0.125 0.25 0.5 0.25 0.25 0.5 0.375 0.25 0.5 0.5 0.25 0.5 0.625 0.25 0.5 0.75 0.25 0.5 0.875 0.25 0.5 1 0.25 0.5 0 0.375 0.5 0.125 0.375 0.5 0.25 0.375 0.5 0.375 0.375 0.5 0.5 0.375 0.5 0.625 0.375 0.5 0.75 0.375 0.5 0.875 0.375 0.5 1 0.375 0.5 0 0.5 0.5 0.125 0.5 0.5 0.25 0.5 0.5 0.375 0.5 0.5 0.5 0.5 0.5 0.625 0.5 0.5 0.75 0.5 0.5 0.875 0.5 0.5 1 0.5 0.5 0 0.625 0.5 0.125 0.625 0.5 0.25 0.625 0.5 0.375 0.625 0.5 0.5 0.625 0.5 0.625 0.625 0.5 0.75 0.625 0.5 0.875 0.625 0.5 1 0.625 0.5 0 0.75 0.5 0.125 0.75 0.5 0.25 0.75 0.5 0.375 0.75 0.5 0.5 0.75 0.5 0.625 0.75 0.5 0.75 0.75 0.5 0.875 0.75 0.5 1 0.75 0.5 0 0.875 0.5 0.125 0.875 0.5 0.25 0.875 0.5 0.375 0.875 0.5 0.5 0.875 0.5 0.625 0.875 0.5 0.75 0.875 0.5 0.875 0.875 0.5 1 0.875 0.5 0 1 0.5 0.125 1 0.5 0.25 1 0.5 0.375 1 0.5 0.5 1 0.5 0.625 1 0.5 0.75 1 0.5 0.875 1 0.5 1 1 0.5 0 0 0.625 0.125 0 0.625 0.25 0 0.625 0.375 0 0.625 0.5 0 0.625 0.625 0 0.625 0.75 0 0.625 0.875 0 0.625 1 0 0.625 0 0.125 0.625 0.125 0.125 0.625 0.25 0.125 0.625 0.375 0.125 0.625 0.5 0.125 0.625 0.625 0.125 0.625 0.75 0.125 0.625 0.875 0.125 0.625 1 0.125 0.625 0 0.25 0.625 0.125 0.25 0.625 0.25 0.25 0.625 0.375 0.25 0.625 0.5 0.25 0.625 0.625 0.25 0.625 0.75 0.25 0.625 0.875 0.25 0.625 1 0.25 0.625 0 0.375 0.625 0.125 0.375 0.625 0.25 0.375 0.625 0.375 0.375 0.625 0.5 0.375 0.625 0.625 0.375 0.625 0.75 0.375 0.625 0.875 0.375 0.625 1 0.375 0.625 0 0.5 0.625 0.125 0.5 0.625 0.25 0.5 0.625 0.375 0.5 0.625 0.5 0.5 0.625 0.625 0.5 0.625 0.75 0.5 0.625 0.875 0.5 0.625 1 0.5 0.625 0 0.625 0.625 0.125 0.625 0.625 0.25 0.625 0.625 0.375 0.625 0.625 0.5 0.625 0.625 0.625 0.625 0.625 0.75 0.625 0.625 0.875 0.625 0.625 1 0.625 0.625 0 0.75 0.625 0.125 0.75 0.625 0.25 0.75 0.625 0.375 0.75 0.625 0.5 0.75 0.625 0.625 0.75 0.625 0.75 0.75 0.625 0.875 0.75 0.625 1 0.75 0.625 0 0.875 0.625 0.125 0.875 0.625 0.25 0.875 0.625 0.375 0.875 0.625 0.5 0.875 0.625 0.625 0.875 0.625 0.75 0.875 0.625 0.875 0.875 0.625 1 0.875 0.625 0 1 0.625 0.125 1 0.625 0.25 1 0.625 0.375 1 0.625 0.5 1 0.625 0.625 1 0.625 0.75 1 0.625 0.875 1 0.625 1 1 0.625 0 0 0.75 0.125 0 0.75 0.25 0 0.75 0.375 0 0.75 0.5 0 0.75 0.625 0 0.75 0.75 0 0.75 0.875 0 0.75 1 0 0.75 0 0.125 0.75 0.125 0.125 0.75 0.25 0.125 0.75 0.375 0.125 0.75 0.5 0.125 0.75 0.625 0.125 0.75 0.75 0.125 0.75 0.875 0.125 0.75 1 0.125 0.75 0 0.25 0.75 0.125 0.25 0.75 0.25 0.25 0.75 0.375 0.25 0.75 0.5 0.25 0.75 0.625 0.25 0.75 0.75 0.25 0.75 0.875 0.25 0.75 1 0.25 0.75 0 0.375 0.75 0.125 0.375 0.75 0.25 0.375 0.75 0.375 0.375 0.75 0.5 0.375 0.75 0.625 0.375 0.75 0.75 0.375 0.75 0.875 0.375 0.75 1 0.375 0.75 0 0.5 0.75 0.125 0.5 0.75 0.25 0.5 0.75 0.375 0.5 0.75 0.5 0.5 0.75 0.625 0.5 0.75 0.75 0.5 0.75 0.875 0.5 0.75 1 0.5 0.75 0 0.625 0.75 0.125 0.625 0.75 0.25 0.625 0.75 0.375 0.625 0.75 0.5 0.625 0.75 0.625 0.625 0.75 0.75 0.625 0.75 0.875 0.625 0.75 1 0.625 0.75 0 0.75 0.75 0.125 0.75 0.75 0.25 0.75 0.75 0.375 0.75 0.75 0.5 0.75 0.75 0.625 0.75 0.75 0.75 0.75 0.75 0.875 0.75 0.75 1 0.75 0.75 0 0.875 0.75 0.125 0.875 0.75 0.25 0.875 0.75 0.375 0.875 0.75 0.5 0.875 0.75 0.625 0.875 0.75 0.75 0.875 0.75 0.875 0.875 0.75 1 0.875 0.75 0 1 0.75 0.125 1 0.75 0.25 1 0.75 0.375 1 0.75 0.5 1 0.75 0.625 1 0.75 0.75 1 0.75 0.875 1 0.75 1 1 0.75 0 0 0.875 0.125 0 0.875 0.25 0 0.875 0.375 0 0.875 0.5 0 0.875 0.625 0 0.875 0.75 0 0.875 0.875 0 0.875 1 0 0.875 0 0.125 0.875 0.125 0.125 0.875 0.25 0.125 0.875 0.375 0.125 0.875 0.5 0.125 0.875 0.625 0.125 0.875 0.75 0.125 0.875 0.875 0.125 0.875 1 0.125 0.875 0 0.25 0.875 0.125 0.25 0.875 0.25 0.25 0.875 0.375 0.25 0.875 0.5 0.25 0.875 0.625 0.25 0.875 0.75 0.25 0.875 0.875 0.25 0.875 1 0.25 0.875 0 0.375 0.875 0.125 0.375 0.875 0.25 0.375 0.875 0.375 0.375 0.875 0.5 0.375 0.875 0.625 0.375 0.875 0.75 0.375 0.875 0.875 0.375 0.875 1 0.375 0.875 0 0.5 0.875 0.125 0.5 0.875 0.25 0.5 0.875 0.375 0.5 0.875 0.5 0.5 0.875 0.625 0.5 0.875 0.75 0.5 0.875 0.875 0.5 0.875 1 0.5 0.875 0 0.625 0.875 0.125 0.625 0.875 0.25 0.625 0.875 0.375 0.625 0.875 0.5 0.625 0.875 0.625 0.625 0.875 0.75 0.625 0.875 0.875 0.625 0.875 1 0.625 0.875 0 0.75 0.875 0.125 0.75 0.875 0.25 0.75 0.875 0.375 0.75 0.875 0.5 0.75 0.875 0.625 0.75 0.875 0.75 0.75 0.875 0.875 0.75 0.875 1 0.75 0.875 0 0.875 0.875 0.125 0.875 0.875 0.25 0.875 0.875 0.375 0.875 0.875 0.5 0.875 0.875 0.625 0.875 0.875 0.75 0.875 0.875 0.875 0.875 0.875 1 0.875 0.875 0 1 0.875 0.125 1 0.875 0.25 1 0.875 0.375 1 0.875 0.5 1 0.875 0.625 1 0.875 0.75 1 0.875 0.875 1 0.875 1 1 0.875 0 0 1 0.125 0 1 0.25 0 1 0.375 0 1 0.5 0 1 0.625 0 1 0.75 0 1 0.875 0 1 1 0 1 0 0.125 1 0.125 0.125 1 0.25 0.125 1 0.375 0.125 1 0.5 0.125 1 0.625 0.125 1 0.75 0.125 1 0.875 0.125 1 1 0.125 1 0 0.25 1 0.125 0.25 1 0.25 0.25 1 0.375 0.25 1 0.5 0.25 1 0.625 0.25 1 0.75 0.25 1 0.875 0.25 1 1 0.25 1 0 0.375 1 0.125 0.375 1 0.25 0.375 1 0.375 0.375 1 0.5 0.375 1 0.625 0.375 1 0.75 0.375 1 0.875 0.375 1 1 0.375 1 0 0.5 1 0.125 0.5 1 0.25 0.5 1 0.375 0.5 1 0.5 0.5 1 0.625 0.5 1 0.75 0.5 1 0.875 0.5 1 1 0.5 1 0 0.625 1 0.125 0.625 1 0.25 0.625 1 0.375 0.625 1 0.5 0.625 1 0.625 0.625 1 0.75 0.625 1 0.875 0.625 1 1 0.625 1 0 0.75 1 0.125 0.75 1 0.25 0.75 1 0.375 0.75 1 0.5 0.75 1 0.625 0.75 1 0.75 0.75 1 0.875 0.75 1 1 0.75 1 0 0.875 1 0.125 0.875 1 0.25 0.875 1 0.375 0.875 1 0.5 0.875 1 0.625 0.875 1 0.75 0.875 1 0.875 0.875 1 1 0.875 1 0 1 1 0.125 1 1 0.25 1 1 0.375 1 1 0.5 1 1 0.625 1 1 0.75 1 1 0.875 1 1 1 1 1         </DataArray>
      </Points>
    </Piece>
  </StructuredGrid>
</VTKFile>
