<?xml version="1.0"?>
<VTKFile type="StructuredGrid" version="0.1" byte_order="LittleEndian">
  <StructuredGrid WholeExtent="0 8 0 8 0 8">
    <Piece Extent="0 8 0 8 0 8">
      <PointData>
      </PointData>
      <CellData>
        <DataArray Name="vy" NumberOfComponents="1" type="Float32" format="ascii">
0.36400312106171117676 0.64431853246369696908 0.6912423090090176192 0.69281897163747518942 0.69281872561083557294 0.69124251745530895796 0.64431838601461366434 0.36400309296873517573 0.34971500550119127837 0.6289884840593353843 0.680277697283478755 0.68338457184870726735 0.68338439444376219978 0.68027784567689353334 0.62898837369305815592 0.34971497008719204524 0.33454856955209832936 0.61124172094053474957 0.66716135531431564054 0.67193973830347109022 0.67193955034816721383 0.66716151189099570651 0.61124159592701665655 0.33454855200064181897 0.32338642596746902669 0.59700181620509829017 0.65649781217840907921 0.66267917120189490099 0.66267910545650998699 0.6564978598146453681 0.59700176751796352193 0.32338639860001816562 0.31336306577574374321 0.58375527891816780812 0.64584435565609255026 0.65324245281036319444 0.6532423496441901456 0.64584444023840104077 0.58375520495148480737 0.31336306031623778479 0.30629390586665994345 0.57418496785806838467 0.63838161193680320604 0.64693810256438877282 0.6469380581410737463 0.63838163704158201739 0.57418493935846481868 0.3062938884010298346 0.30275299283719980803 0.56836571215468012497 0.63204228691717356803 0.64083240464048629725 0.64083236691842826449 0.63204230919271620071 0.56836568574978196811 0.30275299152057455476 0.30109939580456013264 0.56509477549078768188 0.62860643175593378107 0.63779463217481813242 0.63779459233147262065 0.62860645242581325576 0.56509475223958727241 0.30109939316683559385 0.64431853253555826377 1.1698942098165943104 1.2547436121899020467 1.256052283008173065 1.2560508673933281631 1.2547448205331026561 1.1698932470054357324 0.64431838622184645082 0.62898848408937668708 1.1659505504981246826 1.2602173070592013193 1.2638536591666520437 1.2638524360849139327 1.260218355484743924 1.1659497146108563914 0.62898837377473892918 0.61124172094666617827 1.1590988033524531886 1.2644125116935283071 1.2708870101935485497 1.270886279546861175 1.2644131184053726269 1.1590983101478957717 0.61124159593643145882 0.59700181614871639102 1.1531345656860936266 1.2685614761952404006 1.2777237869540414295 1.2777231041142709245 1.2685620508296426845 1.1531340874677651342 0.59700176733622933867 0.58375527887911637936 1.1453588603889381936 1.2697549399508623047 1.2815299373375919068 1.2815296017102351112 1.2697552037683728088 1.1453586349796347488 0.58375520482050946569 0.57418496777194705238 1.1401820637026656158 1.2731652697906286065 1.287878979488504827 1.2878786746755512826 1.2731655128712169311 1.1401818543753245994 0.57418493908385304092 0.56836571212588715696 1.1338371830062836665 1.2698549968348706862 1.286116872201106931 1.2861166836058735008 1.2698551339560049112 1.1338370813398175319 0.56836568564921208235 0.56509477534997665238 1.1321705971193307683 1.2746164115590714605 1.2941730628987553331 1.2941730314464898743 1.2746164179900507651 1.1321705672532664799 0.56509475180429680208 0.69124230911497164254 1.2547436145246055883 1.3443815311839795168 1.3452549704311054235 1.3452567428215245204 1.3443800251186424077 1.2547448275548562791 0.6912425177472117932 0.68027769748561051077 1.2602173089402932682 1.3602046747296792084 1.3634523569046408387 1.3634538848011936718 1.3602033717257251411 1.2602183611341715164 0.68027784626033704907 0.66716135552031807787 1.2644125132005041845 1.3768094123880938451 1.3829979249537465158 1.3829988274754962951 1.3768086687670295643 1.2644131229260133775 0.66716151248499910853 0.65649781247658256511 1.2685614771211346508 1.3923562894294505554 1.4012468448759154427 1.4012476623449334756 1.3923556026724972501 1.2685620535939898801 0.6564978606870947031 0.64584435579493404411 1.2697549407363251106 1.4040574667559679867 1.4155963607671679938 1.4155967492504901717 1.4040571611480159309 1.2697552061072403529 0.64584444062119317209 0.63838161221304523529 1.2731652700729043648 1.4178716343750596973 1.4324354628177837778 1.4324358078266747896 1.4178713548906916042 1.2731655136785275939 0.63838163783714552135 0.63204228695173758634 1.2698549973372657007 1.41903104607456787 1.4352909268607410009 1.4352911814956754721 1.4190308535244275934 1.2698551354171743188 0.63204230924601623176 0.62860643224795209605 1.2746164112570983473 1.432556332511916386 1.4523272102531774586 1.4523272108730602703 1.4325563452996457059 1.2746164169815088485 0.62860645386157287806 0.6928189712669639011 1.2560522771604185621 1.3452549741778636605 1.3459749062567263334 1.3459728158998254255 1.3452567540500663945 1.2560508496058848671 0.69281872441683400865 0.68338457132293495278 1.2638536544585670107 1.3634523598584906701 1.366549983491027298 1.3665481893385338363 1.3634538936344517968 1.2638524217495026303 0.68338439278643170471 0.67193973784383020931 1.2708870064491695206 1.3829979272756331987 1.389043249274339864 1.3890421522854916603 1.3829988344000352374 1.2708862681165564723 0.67193954889476903425 0.66267917067553516741 1.2777237847554308026 1.4012468461155744848 1.4099532184929111089 1.4099522413043643621 1.4012476660188670774 1.2777230973856932295 0.66267910380778749513 0.6532424526734622594 1.2815299356054736801 1.4155963616983413544 1.4268972447032992612 1.4268967502231706401 1.415596752003829728 1.2815295963818382763 0.65324234916436330067 0.6469381021970848078 1.2878789791047762225 1.4324354628069528861 1.4466721204539993995 1.4466716901240554982 1.4324358077418160029 1.2878786734361447053 0.64693805694806361117 0.64083240478530567596 1.2861168713307402633 1.4352909272751448455 1.4511884709475681987 1.4511881309010423724 1.4352911826919714233 1.2861166808405908313 0.64083236723397185575 0.637794631397466949 1.2941730642364317472 1.4523272089137750918 1.4714923103676815774 1.4714922805716361687 1.4523272066563823746 1.2941730352722560227 0.63779458979314451739 0.69281872623296769653 1.2560508765803237718 1.3452567348291248894 1.345972820997115571 1.3459749215701062308 1.3452549461497085304 1.2560523106462697651 0.69281897344621734547 0.6833843952600211491 1.2638524434437901078 1.3634538784797924915 1.3665481933894316757 1.3665499956421478522 1.3634523376838330044 1.2638536812784748609 0.68338457424817689034 0.67193955106116953768 1.2708862853825353412 1.3829988224897891147 1.3890421554999148324 1.3890432588987258189 1.3829979097570566093 1.2708870277093267109 0.67193974039112314145 0.66267910626683002029 1.277723107545912562 1.4012476595342344687 1.4099522432629438828 1.4099532243395851427 1.4012468362890169171 1.2777237972184805059 0.66267917359660832854 0.65324234990518159627 1.2815296044993778057 1.4155967470159682708 1.4268967518520552229 1.4268972495686866875 1.4155963539177127686 1.2815299456750790519 0.65324245353191146002 0.64693805876743071259 1.2878786753980560054 1.4324358075055880768 1.4466716906799319542 1.446672122082529155 1.4324354617763388475 1.2878789815711850775 0.64693810439091803399 0.64083236680651778361 1.2861166852012688722 1.4352911802850027989 1.4511881319617905284 1.4511884741083513894 1.4352909230939945306 1.2861168769061865902 0.64083240418877551736 0.63779459361903745318 1.2941730295812050588 1.4523272133406754936 1.4714922795270586331 1.471492307058684279 1.4523272175441914733 1.2941730569948093343 0.6377946359272124166 0.69124251665498359642 1.2547448102930538472 1.3443800348161498714 1.345256746057679198 1.3452549498964829766 1.3443815604079780712 1.2547435811855245369 0.69124230655345375585 0.68027784469102148268 1.2602183473089645371 1.3602033793201997458 1.363453887313058388 1.3634523406376899413 1.3602046975915269567 1.2602172823020272308 0.68027769427056616891 0.66716151111795896078 1.2644131119456427648 1.3768086747205781073 1.3829988294143422678 1.3829979120789552827 1.37680943030063907 1.2644124921099206826 0.667161352946344266 0.65649785902718305053 1.268562047219623512 1.3923556058455837103 1.4012476632081964922 1.4012468375287008282 1.3923562989329132389 1.2685614652366061783 0.65649780976536853405 0.64584444015191355692 1.2697552008779680044 1.4040571637143166583 1.415596749769341578 1.4155963548489163273 1.4040574744457465783 1.2697549311512328352 0.64584435537118356496 0.63838163655212143421 1.2731655125031957621 1.417871354994108879 1.4324358074207577118 1.4324354617655348232 1.4178716345916866359 1.273165268626762936 0.63838161042916297117 0.63204230956114026974 1.2698551324818281305 1.4190308549417762762 1.4352911814813174018 1.4352909235084139183 1.4190310502750722588 1.2698549923027255826 0.63204228802620343597 0.62860645118126023956 1.2746164207402463919 1.4325563419863118764 1.4523272091240073678 1.4523272162047957679 1.4325563223026898108 1.2746164198454350558 0.62860642797809818116 0.64431838657899143108 1.1698932569213744692 1.2547448173148296746 1.2560508587929293256 1.2560523047985558964 1.2547435835202562782 1.1698942397558826922 0.64431853415737627699 0.62898837448424671503 1.1659497226098076705 1.2602183529584076727 1.2638524291083985673 1.2638536765704104781 1.2602172841831373873 1.1659505746396057191 0.62898848643858762397 0.61124159663737642756 1.1590983164789874227 1.264413116466296394 1.2708862739522095442 1.2708870239649308065 1.2644124936169105489 1.1590988224615879076 0.61124172307234303503 0.59700176833256868303 1.1531340910968137514 1.2685620499839822539 1.2777231008172862392 1.2777237950198283567 1.2685614661625099764 1.1531345766146257059 0.59700181865682599991 0.58375520518800705361 1.1453586379115410221 1.2697552032168406555 1.2815295991709227952 1.2815299439429119754 1.2697549319366983056 1.1453588692299585539 0.58375527962749396149 0.57418493995113684125 1.1401818549920927914 1.273165513310502428 1.2878786741586016884 1.2878789811874118421 1.2731652689090338093 1.1401820655363787971 0.57418496966621790367 0.56836568557716071748 1.1338370829118860073 1.2698551339429924312 1.2861166824359515637 1.2861168760357906127 1.2698549928051126034 1.1338371877738924187 0.56836571166931693089 0.56509475339963788354 1.1321705653114262358 1.2746164197316984801 1.2941730334069485586 1.2941730583324657644 1.2746164195434550592 1.1321705912654813631 0.5650947790891788225 0.36400309267222497045 0.64431838678622743721 0.69124251694694616166 0.69281872503915065131 0.69281897307589257462 0.69124230665946617691 0.64431853422924034724 0.36400312015815206035 0.34971497005635232558 0.62898837456592837647 0.68027784527450352314 0.68338439360278879775 0.68338457372250449584 0.68027769447273511716 0.62898848646862903777 0.34971500540159722314 0.3345485521350870517 0.61124159664679722503 0.66716151171197757286 0.6719395496077196217 0.67193973993143241152 0.66716135315236113623 0.61124172307848023689 0.33454856995221515792 0.32338639876128993933 0.59700176815084082804 0.65649785989962017307 0.66267910461795020982 0.66267917307009349681 0.65649781006352925239 0.59700181860044965187 0.32338642645117010588 0.313363060503355495 0.58375520505702993557 0.64584444053467415792 0.65324234942519066038 0.65324245339484898754 0.64584435550999252929 0.58375527958844097842 0.31336306634645799685 0.30629388841897586815 0.574184939676517625 0.63838163734765129842 0.64693805757430677961 0.64693810402350115929 0.63838161070537091657 0.574184969580089688 0.3062939059347004056 0.30275299164428148835 0.56836568547658505857 0.63204230961441631997 0.64083236712200064567 0.64083240433353405585 0.63204228806074402858 0.5683657116405180787 0.30275299324544557855 0.30109939283358910789 0.56509475296434452662 0.6286064526170070943 0.63779459108068281559 0.63779463514983369965 0.62860642847010539391 0.56509477894836557255 0.30109939484563591483 
        </DataArray>
      </CellData>
      <Points>
        <DataArray Name="m" NumberOfComponents="3" type="Float32" format="ascii">
0 0 0 0.125 0 0 0.25 0 0 0.375 0 0 0.5 0 0 0.625 0 0 0.75 0 0 0.875 0 0 1 0 0 0 0.125 0 0.125 0.125 0 0.25 0.125 0 0.375 0.125 0 0.5 0.125 0 0.625 0.125 0 0.75 0.125 0 0.875 0.125 0 1 0.125 0 0 0.25 0 0.125 0.25 0 0.25 0.25 0 0.375 0.25 0 0.5 0.25 0 0.625 0.25 0 0.75 0.25 0 0.875 0.25 0 1 0.25 0 0 0.375 0 0.125 0.375 0 0.25 0.375 0 0.375 0.375 0 0.5 0.375 0 0.625 0.375 0 0.75 0.375 0 0.875 0.375 0 1 0.375 0 0 0.5 0 0.125 0.5 0 0.25 0.5 0 0.375 0.5 0 0.5 0.5 0 0.625 0.5 0 0.75 0.5 0 0.875 0.5 0 1 0.5 0 0 0.625 0 0.125 0.625 0 0.25 0.625 0 0.375 0.625 0 0.5 0.625 0 0.625 0.625 0 0.75 0.625 0 0.875 0.625 0 1 0.625 0 0 0.75 0 0.125 0.75 0 0.25 0.75 0 0.375 0.75 0 0.5 0.75 0 0.625 0.75 0 0.75 0.75 0 0.875 0.75 0 1 0.75 0 0 0.875 0 0.125 0.875 0 0.25 0.875 0 0.375 0.875 0 0.5 0.875 0 0.625 0.875 0 0.75 0.875 0 0.875 0.875 0 1 0.875 0 0 1 0 0.125 1 0 0.25 1 0 0.375 1 0 0.5 1 0 0.625 1 0 0.75 1 0 0.875 1 0 1 1 0 0 0 0.125 0.125 0 0.125 0.25 0 0.125 0.375 0 0.125 0.5 0 0.125 0.625 0 0.125 0.75 0 0.125 0.875 0 0.125 1 0 0.125 0 0.125 0.125 0.125 0.125 0.125 0.25 0.125 0.125 0.375 0.125 0.125 0.5 0.125 0.125 0.625 0.125 0.125 0.75 0.125 0.125 0.875 0.125 0.125 1 0.125 0.125 0 0.25 0.125 0.125 0.25 0.125 0.25 0.25 0.125 0.375 0.25 0.125 0.5 0.25 0.125 0.625 0.25 0.125 0.75 0.25 0.125 0.875 0.25 0.125 1 0.25 0.125 0 0.375 0.125 0.125 0.375 0.125 0.25 0.375 0.125 0.375 0.375 0.125 0.5 0.375 0.125 0.625 0.375 0.125 0.75 0.375 0.125 0.875 0.375 0.125 1 0.375 0.125 0 0.5 0.125 0.125 0.5 0.125 0.25 0.5 0.125 0.375 0.5 0.125 0.5 0.5 0.125 0.625 0.5 0.125 0.75 0.5 0.125 0.875 0.5 0.125 1 0.5 0.125 0 0.625 0.125 0.125 0.625 0.125 0.25 0.625 0.125 0.375 0.625 0.125 0.5 0.625 0.125 0.625 0.625 0.125 0.75 0.625 0.125 0.875 0.625 0.125 1 0.625 0.125 0 0.75 0.125 0.125 0.75 0.125 0.25 0.75 0.125 0.375 0.75 0.125 0.5 0.75 0.125 0.625 0.75 0.125 0.75 0.75 0.125 0.875 0.75 0.125 1 0.75 0.125 0 0.875 0.125 0.125 0.875 0.125 0.25 0.875 0.125 0.375 0.875 0.125 0.5 0.875 0.125 0.625 0.875 0.125 0.75 0.875 0.125 0.875 0.875 0.125 1 0.875 0.125 0 1 0.125 0.125 1 0.125 0.25 1 0.125 0.375 1 0.125 0.5 1 0.125 0.625 1 0.125 0.75 1 0.125 0.875 1 0.125 1 1 0.125 0 0 0.25 0.125 0 0.25 0.25 0 0.25 0.375 0 0.25 0.5 0 0.25 0.625 0 0.25 0.75 0 0.25 0.875 0 0.25 1 0 0.25 0 0.125 0.25 0.125 0.125 0.25 0.25 0.125 0.25 0.375 0.125 0.25 0.5 0.125 0.25 0.625 0.125 0.25 0.75 0.125 0.25 0.875 0.125 0.25 1 0.125 0.25 0 0.25 0.25 0.125 0.25 0.25 0.25 0.25 0.25 0.375 0.25 0.25 0.5 0.25 0.25 0.625 0.25 0.25 0.75 0.25 0.25 0.875 0.25 0.25 1 0.25 0.25 0 0.375 0.25 0.125 0.375 0.25 0.25 0.375 0.25 0.375 0.375 0.25 0.5 0.375 0.25 0.625 0.375 0.25 0.75 0.375 0.25 0.875 0.375 0.25 1 0.375 0.25 0 0.5 0.25 0.125 0.5 0.25 0.25 0.5 0.25 0.375 0.5 0.25 0.5 0.5 0.25 0.625 0.5 0.25 0.75 0.5 0.25 0.875 0.5 0.25 1 0.5 0.25 0 0.625 0.25 0.125 0.625 0.25 0.25 0.625 0.25 0.375 0.625 0.25 0.5 0.625 0.25 0.625 0.625 0.25 0.75 0.625 0.25 0.875 0.625 0.25 1 0.625 0.25 0 0.75 0.25 0.125 0.75 0.25 0.25 0.75 0.25 0.375 0.75 0.25 0.5 0.75 0.25 0.625 0.75 0.25 0.75 0.75 0.25 0.875 0.75 0.25 1 0.75 0.25 0 0.875 0.25 0.125 0.875 0.25 0.25 0.875 0.25 0.375 0.875 0.25 0.5 0.875 0.25 0.625 0.875 0.25 0.75 0.875 0.25 0.875 0.875 0.25 1 0.875 0.25 0 1 0.25 0.125 1 0.25 0.25 1 0.25 0.375 1 0.25 0.5 1 0.25 0.625 1 0.25 0.75 1 0.25 0.875 1 0.25 1 1 0.25 0 0 0.375 0.125 0 0.375 0.25 0 0.375 0.375 0 0.375 0.5 0 0.375 0.625 0 0.375 0.75 0 0.375 0.875 0 0.375 1 0 0.375 0 0.125 0.375 0.125 0.125 0.375 0.25 0.125 0.375 0.375 0.125 0.375 0.5 0.125 0.375 0.625 0.125 0.375 0.75 0.125 0.375 0.875 0.125 0.375 1 0.125 0.375 0 0.25 0.375 0.125 0.25 0.375 0.25 0.25 0.375 0.375 0.25 0.375 0.5 0.25 0.375 0.625 0.25 0.375 0.75 0.25 0.375 0.875 0.25 0.375 1 0.25 0.375 0 0.375 0.375 0.125 0.375 0.375 0.25 0.375 0.375 0.375 0.375 0.375 0.5 0.375 0.375 0.625 0.375 0.375 0.75 0.375 0.375 0.875 0.375 0.375 1 0.375 0.375 0 0.5 0.375 0.125 0.5 0.375 0.25 0.5 0.375 0.375 0.5 0.375 0.5 0.5 0.375 0.625 0.5 0.375 0.75 0.5 0.375 0.875 0.5 0.375 1 0.5 0.375 0 0.625 0.375 0.125 0.625 0.375 0.25 0.625 0.375 0.375 0.625 0.375 0.5 0.625 0.375 0.625 0.625 0.375 0.75 0.625 0.375 0.875 0.625 0.375 1 0.625 0.375 0 0.75 0.375 0.125 0.75 0.375 0.25 0.75 0.375 0.375 0.75 0.375 0.5 0.75 0.375 0.625 0.75 0.375 0.75 0.75 0.375 0.875 0.75 0.375 1 0.75 0.375 0 0.875 0.375 0.125 0.875 0.375 0.25 0.875 0.375 0.375 0.875 0.375 0.5 0.875 0.375 0.625 0.875 0.375 0.75 0.875 0.375 0.875 0.875 0.375 1 0.875 0.375 0 1 0.375 0.125 1 0.375 0.25 1 0.375 0.375 1 0.375 0.5 1 0.375 0.625 1 0.375 0.75 1 0.375 0.875 1 0.375 1 1 0.375 0 0 0.5 0.125 0 0.5 0.25 0 0.5 0.375 0 0.5 0.5 0 0.5 0.625 0 0.5 0.75 0 0.5 0.875 0 0.5 1 0 0.5 0 0.125 0.5 0.125 0.125 0.5 0.25 0.125 0.5 0.375 0.125 0.5 0.5 0.125 0.5 0.625 0.125 0.5 0.75 0.125 0.5 0.875 0.125 0.5 1 0.125 0.5 0 0.25 0.5 0.125 0.25 0.5 0.25 0.25 0.5 0.375 0.25 0.5 0.5 0.25 0.5 0.625 0.25 0.5 0.75 0.25 0.5 0.875 0.25 0.5 1 0.25 0.5 0 0.375 0.5 0.125 0.375 0.5 0.25 0.375 0.5 0.375 0.375 0.5 0.5 0.375 0.5 0.625 0.375 0.5 0.75 0.375 0.5 0.875 0.375 0.5 1 0.375 0.5 0 0.5 0.5 0.125 0.5 0.5 0.25 0.5 0.5 0.375 0.5 0.5 0.5 0.5 0.5 0.625 0.5 0.5 0.75 0.5 0.5 0.875 0.5 0.5 1 0.5 0.5 0 0.625 0.5 0.125 0.625 0.5 0.25 0.625 0.5 0.375 0.625 0.5 0.5 0.625 0.5 0.625 0.625 0.5 0.75 0.625 0.5 0.875 0.625 0.5 1 0.625 0.5 0 0.75 0.5 0.125 0.75 0.5 0.25 0.75 0.5 0.375 0.75 0.5 0.5 0.75 0.5 0.625 0.75 0.5 0.75 0.75 0.5 0.875 0.75 0.5 1 0.75 0.5 0 0.875 0.5 0.125 0.875 0.5 0.25 0.875 0.5 0.375 0.875 0.5 0.5 0.875 0.5 0.625 0.875 0.5 0.75 0.875 0.5 0.875 0.875 0.5 1 0.875 0.5 0 1 0.5 0.125 1 0.5 0.25 1 0.5 0.375 1 0.5 0.5 1 0.5 0.625 1 0.5 0.75 1 0.5 0.875 1 0.5 1 1 0.5 0 0 0.625 0.125 0 0.625 0.25 0 0.625 0.375 0 0.625 0.5 0 0.625 0.625 0 0.625 0.75 0 0.625 0.875 0 0.625 1 0 0.625 0 0.125 0.625 0.125 0.125 0.625 0.25 0.125 0.625 0.375 0.125 0.625 0.5 0.125 0.625 0.625 0.125 0.625 0.75 0.125 0.625 0.875 0.125 0.625 1 0.125 0.625 0 0.25 0.625 0.125 0.25 0.625 0.25 0.25 0.625 0.375 0.25 0.625 0.5 0.25 0.625 0.625 0.25 0.625 0.75 0.25 0.625 0.875 0.25 0.625 1 0.25 0.625 0 0.375 0.625 0.125 0.375 0.625 0.25 0.375 0.625 0.375 0.375 0.625 0.5 0.375 0.625 0.625 0.375 0.625 0.75 0.375 0.625 0.875 0.375 0.625 1 0.375 0.625 0 0.5 0.625 0.125 0.5 0.625 0.25 0.5 0.625 0.375 0.5 0.625 0.5 0.5 0.625 0.625 0.5 0.625 0.75 0.5 0.625 0.875 0.5 0.625 1 0.5 0.625 0 0.625 0.625 0.125 0.625 0.625 0.25 0.625 0.625 0.375 0.625 0.625 0.5 0.625 0.625 0.625 0.625 0.625 0.75 0.625 0.625 0.875 0.625 0.625 1 0.625 0.625 0 0.75 0.625 0.125 0.75 0.625 0.25 0.75 0.625 0.375 0.75 0.625 0.5 0.75 0.625 0.625 0.75 0.625 0.75 0.75 0.625 0.875 0.75 0.625 1 0.75 0.625 0 0.875 0.625 0.125 0.875 0.625 0.25 0.875 0.625 0.375 0.875 0.625 0.5 0.875 0.625 0.625 0.875 0.625 0.75 0.875 0.625 0.875 0.875 0.625 1 0.875 0.625 0 1 0.625 0.125 1 0.625 0.25 1 0.625 0.375 1 0.625 0.5 1 0.625 0.625 1 0.625 0.75 1 0.625 0.875 1 0.625 1 1 0.625 0 0 0.75 0.125 0 0.75 0.25 0 0.75 0.375 0 0.75 0.5 0 0.75 0.625 0 0.75 0.75 0 0.75 0.875 0 0.75 1 0 0.75 0 0.125 0.75 0.125 0.125 0.75 0.25 0.125 0.75 0.375 0.125 0.75 0.5 0.125 0.75 0.625 0.125 0.75 0.75 0.125 0.75 0.875 0.125 0.75 1 0.125 0.75 0 0.25 0.75 0.125 0.25 0.75 0.25 0.25 0.75 0.375 0.25 0.75 0.5 0.25 0.75 0.625 0.25 0.75 0.75 0.25 0.75 0.875 0.25 0.75 1 0.25 0.75 0 0.375 0.75 0.125 0.375 0.75 0.25 0.375 0.75 0.375 0.375 0.75 0.5 0.375 0.75 0.625 0.375 0.75 0.75 0.375 0.75 0.875 0.375 0.75 1 0.375 0.75 0 0.5 0.75 0.125 0.5 0.75 0.25 0.5 0.75 0.375 0.5 0.75 0.5 0.5 0.75 0.625 0.5 0.75 0.75 0.5 0.75 0.875 0.5 0.75 1 0.5 0.75 0 0.625 0.75 0.125 0.625 0.75 0.25 0.625 0.75 0.375 0.625 0.75 0.5 0.625 0.75 0.625 0.625 0.75 0.75 0.625 0.75 0.875 0.625 0.75 1 0.625 0.75 0 0.75 0.75 0.125 0.75 0.75 0.25 0.75 0.75 0.375 0.75 0.75 0.5 0.75 0.75 0.625 0.75 0.75 0.75 0.75 0.75 0.875 0.75 0.75 1 0.75 0.75 0 0.875 0.75 0.125 0.875 0.75 0.25 0.875 0.75 0.375 0.875 0.75 0.5 0.875 0.75 0.625 0.875 0.75 0.75 0.875 0.75 0.875 0.875 0.75 1 0.875 0.75 0 1 0.75 0.125 1 0.75 0.25 1 0.75 0.375 1 0.75 0.5 1 0.75 0.625 1 0.75 0.75 1 0.75 0.875 1 0.75 1 1 0.75 0 0 0.875 0.125 0 0.875 0.25 0 0.875 0.375 0 0.875 0.5 0 0.875 0.625 0 0.875 0.75 0 0.875 0.875 0 0.875 1 0 0.875 0 0.125 0.875 0.125 0.125 0.875 0.25 0.125 0.875 0.375 0.125 0.875 0.5 0.125 0.875 0.625 0.125 0.875 0.75 0.125 0.875 0.875 0.125 0.875 1 0.125 0.875 0 0.25 0.875 0.125 0.25 0.875 0.25 0.25 0.875 0.375 0.25 0.875 0.5 0.25 0.875 0.625 0.25 0.875 0.75 0.25 0.875 0.875 0.25 0.875 1 0.25 0.875 0 0.375 0.875 0.125 0.375 0.875 0.25 0.375 0.875 0.375 0.375 0.875 0.5 0.375 0.875 0.625 0.375 0.875 0.75 0.375 0.875 0.875 0.375 0.875 1 0.375 0.875 0 0.5 0.875 0.125 0.5 0.875 0.25 0.5 0.875 0.375 0.5 0.875 0.5 0.5 0.875 0.625 0.5 0.875 0.75 0.5 0.875 0.875 0.5 0.875 1 0.5 0.875 0 0.625 0.875 0.125 0.625 0.875 0.25 0.625 0.875 0.375 0.625 0.875 0.5 0.625 0.875 0.625 0.625 0.875 0.75 0.625 0.875 0.875 0.625 0.875 1 0.625 0.875 0 0.75 0.875 0.125 0.75 0.875 0.25 0.75 0.875 0.375 0.75 0.875 0.5 0.75 0.875 0.625 0.75 0.875 0.75 0.75 0.875 0.875 0.75 0.875 1 0.75 0.875 0 0.875 0.875 0.125 0.875 0.875 0.25 0.875 0.875 0.375 0.875 0.875 0.5 0.875 0.875 0.625 0.875 0.875 0.75 0.875 0.875 0.875 0.875 0.875 1 0.875 0.875 0 1 0.875 0.125 1 0.875 0.25 1 0.875 0.375 1 0.875 0.5 1 0.875 0.625 1 0.875 0.75 1 0.875 0.875 1 0.875 1 1 0.875 0 0 1 0.125 0 1 0.25 0 1 0.375 0 1 0.5 0 1 0.625 0 1 0.75 0 1 0.875 0 1 1 0 1 0 0.125 1 0.125 0.125 1 0.25 0.125 1 0.375 0.125 1 0.5 0.125 1 0.625 0.125 1 0.75 0.125 1 0.875 0.125 1 1 0.125 1 0 0.25 1 0.125 0.25 1 0.25 0.25 1 0.375 0.25 1 0.5 0.25 1 0.625 0.25 1 0.75 0.25 1 0.875 0.25 1 1 0.25 1 0 0.375 1 0.125 0.375 1 0.25 0.375 1 0.375 0.375 1 0.5 0.375 1 0.625 0.375 1 0.75 0.375 1 0.875 0.375 1 1 0.375 1 0 0.5 1 0.125 0.5 1 0.25 0.5 1 0.375 0.5 1 0.5 0.5 1 0.625 0.5 1 0.75 0.5 1 0.875 0.5 1 1 0.5 1 0 0.625 1 0.125 0.625 1 0.25 0.625 1 0.375 0.625 1 0.5 0.625 1 0.625 0.625 1 0.75 0.625 1 0.875 0.625 1 1 0.625 1 0 0.75 1 0.125 0.75 1 0.25 0.75 1 0.375 0.75 1 0.5 0.75 1 0.625 0.75 1 0.75 0.75 1 0.875 0.75 1 1 0.75 1 0 0.875 1 0.125 0.875 1 0.25 0.875 1 0.375 0.875 1 0.5 0.875 1 0.625 0.875 1 0.75 0.875 1 0.875 0.875 1 1 0.875 1 0 1 1 0.125 1 1 0.25 1 1 0.375 1 1 0.5 1 1 0.625 1 1 0.75 1 1 0.875 1 1 1 1 1         </DataArray>
      </Points>
    </Piece>
  </StructuredGrid>
</VTKFile>
