<?xml version="1.0"?>
<VTKFile type="StructuredGrid" version="0.1" byte_order="LittleEndian">
  <StructuredGrid WholeExtent="0 8 0 8 0 8">
    <Piece Extent="0 8 0 8 0 8">
      <PointData>
      </PointData>
      <CellData>
        <DataArray Name="vx" NumberOfComponents="1" type="Float32" format="ascii">
0.86867893873093793289 0.86867893873093793289 0.86867893873093793289 0.86867893873093793289 0.86867893873093793289 0.86867893873093793289 0.86867893873093793289 0.86867893873093793289 0.60974018930322004817 0.60974018930322004817 0.60974018930322004817 0.60974018930322004817 0.60974018930322004817 0.60974018930322004817 0.60974018930322004817 0.60974018930322004817 0.35974075977400510329 0.35974075977400510329 0.35974075977400510329 0.35974075977400510329 0.35974075977400510329 0.35974075977400510329 0.35974075977400510329 0.35974075977400510329 0.11867938980112568981 0.11867938980112568981 0.11867938980112568981 0.11867938980112568981 0.11867938980112568981 0.11867938980112568981 0.11867938980112568981 0.11867938980112568981 -0.11867938980112571756 -0.11867938980112571756 -0.11867938980112571756 -0.11867938980112571756 -0.11867938980112571756 -0.11867938980112571756 -0.11867938980112571756 -0.11867938980112571756 -0.35974075977400504778 -0.35974075977400504778 -0.35974075977400504778 -0.35974075977400504778 -0.35974075977400504778 -0.35974075977400504778 -0.35974075977400504778 -0.35974075977400504778 -0.60974018930322027021 -0.60974018930322027021 -0.60974018930322027021 -0.60974018930322027021 -0.60974018930322027021 -0.60974018930322027021 -0.60974018930322027021 -0.60974018930322027021 -0.86867893873093815493 -0.86867893873093815493 -0.86867893873093815493 -0.86867893873093815493 -0.86867893873093815493 -0.86867893873093815493 -0.86867893873093815493 -0.86867893873093815493 0.86867893873093793289 0.86867893873093793289 0.86867893873093793289 0.86867893873093793289 0.86867893873093793289 0.86867893873093793289 0.86867893873093793289 0.86867893873093793289 0.60974018930322004817 0.60974018930322004817 0.60974018930322004817 0.60974018930322004817 0.60974018930322004817 0.60974018930322004817 0.60974018930322004817 0.60974018930322004817 0.35974075977400510329 0.35974075977400510329 0.35974075977400510329 0.35974075977400510329 0.35974075977400510329 0.35974075977400510329 0.35974075977400510329 0.35974075977400510329 0.11867938980112568981 0.11867938980112568981 0.11867938980112568981 0.11867938980112568981 0.11867938980112568981 0.11867938980112568981 0.11867938980112568981 0.11867938980112568981 -0.11867938980112571756 -0.11867938980112571756 -0.11867938980112571756 -0.11867938980112571756 -0.11867938980112571756 -0.11867938980112571756 -0.11867938980112571756 -0.11867938980112571756 -0.35974075977400504778 -0.35974075977400504778 -0.35974075977400504778 -0.35974075977400504778 -0.35974075977400504778 -0.35974075977400504778 -0.35974075977400504778 -0.35974075977400504778 -0.60974018930322027021 -0.60974018930322027021 -0.60974018930322027021 -0.60974018930322027021 -0.60974018930322027021 -0.60974018930322027021 -0.60974018930322027021 -0.60974018930322027021 -0.86867893873093815493 -0.86867893873093815493 -0.86867893873093815493 -0.86867893873093815493 -0.86867893873093815493 -0.86867893873093815493 -0.86867893873093815493 -0.86867893873093815493 0.86867893873093793289 0.86867893873093793289 0.86867893873093793289 0.86867893873093793289 0.86867893873093793289 0.86867893873093793289 0.86867893873093793289 0.86867893873093793289 0.60974018930322004817 0.60974018930322004817 0.60974018930322004817 0.60974018930322004817 0.60974018930322004817 0.60974018930322004817 0.60974018930322004817 0.60974018930322004817 0.35974075977400510329 0.35974075977400510329 0.35974075977400510329 0.35974075977400510329 0.35974075977400510329 0.35974075977400510329 0.35974075977400510329 0.35974075977400510329 0.11867938980112568981 0.11867938980112568981 0.11867938980112568981 0.11867938980112568981 0.11867938980112568981 0.11867938980112568981 0.11867938980112568981 0.11867938980112568981 -0.11867938980112571756 -0.11867938980112571756 -0.11867938980112571756 -0.11867938980112571756 -0.11867938980112571756 -0.11867938980112571756 -0.11867938980112571756 -0.11867938980112571756 -0.35974075977400504778 -0.35974075977400504778 -0.35974075977400504778 -0.35974075977400504778 -0.35974075977400504778 -0.35974075977400504778 -0.35974075977400504778 -0.35974075977400504778 -0.60974018930322027021 -0.60974018930322027021 -0.60974018930322027021 -0.60974018930322027021 -0.60974018930322027021 -0.60974018930322027021 -0.60974018930322027021 -0.60974018930322027021 -0.86867893873093815493 -0.86867893873093815493 -0.86867893873093815493 -0.86867893873093815493 -0.86867893873093815493 -0.86867893873093815493 -0.86867893873093815493 -0.86867893873093815493 0.86867893873093793289 0.86867893873093793289 0.86867893873093793289 0.86867893873093793289 0.86867893873093793289 0.86867893873093793289 0.86867893873093793289 0.86867893873093793289 0.60974018930322004817 0.60974018930322004817 0.60974018930322004817 0.60974018930322004817 0.60974018930322004817 0.60974018930322004817 0.60974018930322004817 0.60974018930322004817 0.35974075977400510329 0.35974075977400510329 0.35974075977400510329 0.35974075977400510329 0.35974075977400510329 0.35974075977400510329 0.35974075977400510329 0.35974075977400510329 0.11867938980112568981 0.11867938980112568981 0.11867938980112568981 0.11867938980112568981 0.11867938980112568981 0.11867938980112568981 0.11867938980112568981 0.11867938980112568981 -0.11867938980112571756 -0.11867938980112571756 -0.11867938980112571756 -0.11867938980112571756 -0.11867938980112571756 -0.11867938980112571756 -0.11867938980112571756 -0.11867938980112571756 -0.35974075977400504778 -0.35974075977400504778 -0.35974075977400504778 -0.35974075977400504778 -0.35974075977400504778 -0.35974075977400504778 -0.35974075977400504778 -0.35974075977400504778 -0.60974018930322027021 -0.60974018930322027021 -0.60974018930322027021 -0.60974018930322027021 -0.60974018930322027021 -0.60974018930322027021 -0.60974018930322027021 -0.60974018930322027021 -0.86867893873093815493 -0.86867893873093815493 -0.86867893873093815493 -0.86867893873093815493 -0.86867893873093815493 -0.86867893873093815493 -0.86867893873093815493 -0.86867893873093815493 0.86867893873093793289 0.86867893873093793289 0.86867893873093793289 0.86867893873093793289 0.86867893873093793289 0.86867893873093793289 0.86867893873093793289 0.86867893873093793289 0.60974018930322004817 0.60974018930322004817 0.60974018930322004817 0.60974018930322004817 0.60974018930322004817 0.60974018930322004817 0.60974018930322004817 0.60974018930322004817 0.35974075977400510329 0.35974075977400510329 0.35974075977400510329 0.35974075977400510329 0.35974075977400510329 0.35974075977400510329 0.35974075977400510329 0.35974075977400510329 0.11867938980112568981 0.11867938980112568981 0.11867938980112568981 0.11867938980112568981 0.11867938980112568981 0.11867938980112568981 0.11867938980112568981 0.11867938980112568981 -0.11867938980112571756 -0.11867938980112571756 -0.11867938980112571756 -0.11867938980112571756 -0.11867938980112571756 -0.11867938980112571756 -0.11867938980112571756 -0.11867938980112571756 -0.35974075977400504778 -0.35974075977400504778 -0.35974075977400504778 -0.35974075977400504778 -0.35974075977400504778 -0.35974075977400504778 -0.35974075977400504778 -0.35974075977400504778 -0.60974018930322027021 -0.60974018930322027021 -0.60974018930322027021 -0.60974018930322027021 -0.60974018930322027021 -0.60974018930322027021 -0.60974018930322027021 -0.60974018930322027021 -0.86867893873093815493 -0.86867893873093815493 -0.86867893873093815493 -0.86867893873093815493 -0.86867893873093815493 -0.86867893873093815493 -0.86867893873093815493 -0.86867893873093815493 0.86867893873093793289 0.86867893873093793289 0.86867893873093793289 0.86867893873093793289 0.86867893873093793289 0.86867893873093793289 0.86867893873093793289 0.86867893873093793289 0.60974018930322004817 0.60974018930322004817 0.60974018930322004817 0.60974018930322004817 0.60974018930322004817 0.60974018930322004817 0.60974018930322004817 0.60974018930322004817 0.35974075977400510329 0.35974075977400510329 0.35974075977400510329 0.35974075977400510329 0.35974075977400510329 0.35974075977400510329 0.35974075977400510329 0.35974075977400510329 0.11867938980112568981 0.11867938980112568981 0.11867938980112568981 0.11867938980112568981 0.11867938980112568981 0.11867938980112568981 0.11867938980112568981 0.11867938980112568981 -0.11867938980112571756 -0.11867938980112571756 -0.11867938980112571756 -0.11867938980112571756 -0.11867938980112571756 -0.11867938980112571756 -0.11867938980112571756 -0.11867938980112571756 -0.35974075977400504778 -0.35974075977400504778 -0.35974075977400504778 -0.35974075977400504778 -0.35974075977400504778 -0.35974075977400504778 -0.35974075977400504778 -0.35974075977400504778 -0.60974018930322027021 -0.60974018930322027021 -0.60974018930322027021 -0.60974018930322027021 -0.60974018930322027021 -0.60974018930322027021 -0.60974018930322027021 -0.60974018930322027021 -0.86867893873093815493 -0.86867893873093815493 -0.86867893873093815493 -0.86867893873093815493 -0.86867893873093815493 -0.86867893873093815493 -0.86867893873093815493 -0.86867893873093815493 0.86867893873093793289 0.86867893873093793289 0.86867893873093793289 0.86867893873093793289 0.86867893873093793289 0.86867893873093793289 0.86867893873093793289 0.86867893873093793289 0.60974018930322004817 0.60974018930322004817 0.60974018930322004817 0.60974018930322004817 0.60974018930322004817 0.60974018930322004817 0.60974018930322004817 0.60974018930322004817 0.35974075977400510329 0.35974075977400510329 0.35974075977400510329 0.35974075977400510329 0.35974075977400510329 0.35974075977400510329 0.35974075977400510329 0.35974075977400510329 0.11867938980112568981 0.11867938980112568981 0.11867938980112568981 0.11867938980112568981 0.11867938980112568981 0.11867938980112568981 0.11867938980112568981 0.11867938980112568981 -0.11867938980112571756 -0.11867938980112571756 -0.11867938980112571756 -0.11867938980112571756 -0.11867938980112571756 -0.11867938980112571756 -0.11867938980112571756 -0.11867938980112571756 -0.35974075977400504778 -0.35974075977400504778 -0.35974075977400504778 -0.35974075977400504778 -0.35974075977400504778 -0.35974075977400504778 -0.35974075977400504778 -0.35974075977400504778 -0.60974018930322027021 -0.60974018930322027021 -0.60974018930322027021 -0.60974018930322027021 -0.60974018930322027021 -0.60974018930322027021 -0.60974018930322027021 -0.60974018930322027021 -0.86867893873093815493 -0.86867893873093815493 -0.86867893873093815493 -0.86867893873093815493 -0.86867893873093815493 -0.86867893873093815493 -0.86867893873093815493 -0.86867893873093815493 0.86867893873093793289 0.86867893873093793289 0.86867893873093793289 0.86867893873093793289 0.86867893873093793289 0.86867893873093793289 0.86867893873093793289 0.86867893873093793289 0.60974018930322004817 0.60974018930322004817 0.60974018930322004817 0.60974018930322004817 0.60974018930322004817 0.60974018930322004817 0.60974018930322004817 0.60974018930322004817 0.35974075977400510329 0.35974075977400510329 0.35974075977400510329 0.35974075977400510329 0.35974075977400510329 0.35974075977400510329 0.35974075977400510329 0.35974075977400510329 0.11867938980112568981 0.11867938980112568981 0.11867938980112568981 0.11867938980112568981 0.11867938980112568981 0.11867938980112568981 0.11867938980112568981 0.11867938980112568981 -0.11867938980112571756 -0.11867938980112571756 -0.11867938980112571756 -0.11867938980112571756 -0.11867938980112571756 -0.11867938980112571756 -0.11867938980112571756 -0.11867938980112571756 -0.35974075977400504778 -0.35974075977400504778 -0.35974075977400504778 -0.35974075977400504778 -0.35974075977400504778 -0.35974075977400504778 -0.35974075977400504778 -0.35974075977400504778 -0.60974018930322027021 -0.60974018930322027021 -0.60974018930322027021 -0.60974018930322027021 -0.60974018930322027021 -0.60974018930322027021 -0.60974018930322027021 -0.60974018930322027021 -0.86867893873093815493 -0.86867893873093815493 -0.86867893873093815493 -0.86867893873093815493 -0.86867893873093815493 -0.86867893873093815493 -0.86867893873093815493 -0.86867893873093815493 
        </DataArray>
      </CellData>
      <Points>
        <DataArray Name="m" NumberOfComponents="3" type="Float32" format="ascii">
0 0 0 0.125 0 0 0.25 0 0 0.375 0 0 0.5 0 0 0.625 0 0 0.75 0 0 0.875 0 0 1 0 0 0 0.125 0 0.125 0.125 0 0.25 0.125 0 0.375 0.125 0 0.5 0.125 0 0.625 0.125 0 0.75 0.125 0 0.875 0.125 0 1 0.125 0 0 0.25 0 0.125 0.25 0 0.25 0.25 0 0.375 0.25 0 0.5 0.25 0 0.625 0.25 0 0.75 0.25 0 0.875 0.25 0 1 0.25 0 0 0.375 0 0.125 0.375 0 0.25 0.375 0 0.375 0.375 0 0.5 0.375 0 0.625 0.375 0 0.75 0.375 0 0.875 0.375 0 1 0.375 0 0 0.5 0 0.125 0.5 0 0.25 0.5 0 0.375 0.5 0 0.5 0.5 0 0.625 0.5 0 0.75 0.5 0 0.875 0.5 0 1 0.5 0 0 0.625 0 0.125 0.625 0 0.25 0.625 0 0.375 0.625 0 0.5 0.625 0 0.625 0.625 0 0.75 0.625 0 0.875 0.625 0 1 0.625 0 0 0.75 0 0.125 0.75 0 0.25 0.75 0 0.375 0.75 0 0.5 0.75 0 0.625 0.75 0 0.75 0.75 0 0.875 0.75 0 1 0.75 0 0 0.875 0 0.125 0.875 0 0.25 0.875 0 0.375 0.875 0 0.5 0.875 0 0.625 0.875 0 0.75 0.875 0 0.875 0.875 0 1 0.875 0 0 1 0 0.125 1 0 0.25 1 0 0.375 1 0 0.5 1 0 0.625 1 0 0.75 1 0 0.875 1 0 1 1 0 0 0 0.125 0.125 0 0.125 0.25 0 0.125 0.375 0 0.125 0.5 0 0.125 0.625 0 0.125 0.75 0 0.125 0.875 0 0.125 1 0 0.125 0 0.125 0.125 0.125 0.125 0.125 0.25 0.125 0.125 0.375 0.125 0.125 0.5 0.125 0.125 0.625 0.125 0.125 0.75 0.125 0.125 0.875 0.125 0.125 1 0.125 0.125 0 0.25 0.125 0.125 0.25 0.125 0.25 0.25 0.125 0.375 0.25 0.125 0.5 0.25 0.125 0.625 0.25 0.125 0.75 0.25 0.125 0.875 0.25 0.125 1 0.25 0.125 0 0.375 0.125 0.125 0.375 0.125 0.25 0.375 0.125 0.375 0.375 0.125 0.5 0.375 0.125 0.625 0.375 0.125 0.75 0.375 0.125 0.875 0.375 0.125 1 0.375 0.125 0 0.5 0.125 0.125 0.5 0.125 0.25 0.5 0.125 0.375 0.5 0.125 0.5 0.5 0.125 0.625 0.5 0.125 0.75 0.5 0.125 0.875 0.5 0.125 1 0.5 0.125 0 0.625 0.125 0.125 0.625 0.125 0.25 0.625 0.125 0.375 0.625 0.125 0.5 0.625 0.125 0.625 0.625 0.125 0.75 0.625 0.125 0.875 0.625 0.125 1 0.625 0.125 0 0.75 0.125 0.125 0.75 0.125 0.25 0.75 0.125 0.375 0.75 0.125 0.5 0.75 0.125 0.625 0.75 0.125 0.75 0.75 0.125 0.875 0.75 0.125 1 0.75 0.125 0 0.875 0.125 0.125 0.875 0.125 0.25 0.875 0.125 0.375 0.875 0.125 0.5 0.875 0.125 0.625 0.875 0.125 0.75 0.875 0.125 0.875 0.875 0.125 1 0.875 0.125 0 1 0.125 0.125 1 0.125 0.25 1 0.125 0.375 1 0.125 0.5 1 0.125 0.625 1 0.125 0.75 1 0.125 0.875 1 0.125 1 1 0.125 0 0 0.25 0.125 0 0.25 0.25 0 0.25 0.375 0 0.25 0.5 0 0.25 0.625 0 0.25 0.75 0 0.25 0.875 0 0.25 1 0 0.25 0 0.125 0.25 0.125 0.125 0.25 0.25 0.125 0.25 0.375 0.125 0.25 0.5 0.125 0.25 0.625 0.125 0.25 0.75 0.125 0.25 0.875 0.125 0.25 1 0.125 0.25 0 0.25 0.25 0.125 0.25 0.25 0.25 0.25 0.25 0.375 0.25 0.25 0.5 0.25 0.25 0.625 0.25 0.25 0.75 0.25 0.25 0.875 0.25 0.25 1 0.25 0.25 0 0.375 0.25 0.125 0.375 0.25 0.25 0.375 0.25 0.375 0.375 0.25 0.5 0.375 0.25 0.625 0.375 0.25 0.75 0.375 0.25 0.875 0.375 0.25 1 0.375 0.25 0 0.5 0.25 0.125 0.5 0.25 0.25 0.5 0.25 0.375 0.5 0.25 0.5 0.5 0.25 0.625 0.5 0.25 0.75 0.5 0.25 0.875 0.5 0.25 1 0.5 0.25 0 0.625 0.25 0.125 0.625 0.25 0.25 0.625 0.25 0.375 0.625 0.25 0.5 0.625 0.25 0.625 0.625 0.25 0.75 0.625 0.25 0.875 0.625 0.25 1 0.625 0.25 0 0.75 0.25 0.125 0.75 0.25 0.25 0.75 0.25 0.375 0.75 0.25 0.5 0.75 0.25 0.625 0.75 0.25 0.75 0.75 0.25 0.875 0.75 0.25 1 0.75 0.25 0 0.875 0.25 0.125 0.875 0.25 0.25 0.875 0.25 0.375 0.875 0.25 0.5 0.875 0.25 0.625 0.875 0.25 0.75 0.875 0.25 0.875 0.875 0.25 1 0.875 0.25 0 1 0.25 0.125 1 0.25 0.25 1 0.25 0.375 1 0.25 0.5 1 0.25 0.625 1 0.25 0.75 1 0.25 0.875 1 0.25 1 1 0.25 0 0 0.375 0.125 0 0.375 0.25 0 0.375 0.375 0 0.375 0.5 0 0.375 0.625 0 0.375 0.75 0 0.375 0.875 0 0.375 1 0 0.375 0 0.125 0.375 0.125 0.125 0.375 0.25 0.125 0.375 0.375 0.125 0.375 0.5 0.125 0.375 0.625 0.125 0.375 0.75 0.125 0.375 0.875 0.125 0.375 1 0.125 0.375 0 0.25 0.375 0.125 0.25 0.375 0.25 0.25 0.375 0.375 0.25 0.375 0.5 0.25 0.375 0.625 0.25 0.375 0.75 0.25 0.375 0.875 0.25 0.375 1 0.25 0.375 0 0.375 0.375 0.125 0.375 0.375 0.25 0.375 0.375 0.375 0.375 0.375 0.5 0.375 0.375 0.625 0.375 0.375 0.75 0.375 0.375 0.875 0.375 0.375 1 0.375 0.375 0 0.5 0.375 0.125 0.5 0.375 0.25 0.5 0.375 0.375 0.5 0.375 0.5 0.5 0.375 0.625 0.5 0.375 0.75 0.5 0.375 0.875 0.5 0.375 1 0.5 0.375 0 0.625 0.375 0.125 0.625 0.375 0.25 0.625 0.375 0.375 0.625 0.375 0.5 0.625 0.375 0.625 0.625 0.375 0.75 0.625 0.375 0.875 0.625 0.375 1 0.625 0.375 0 0.75 0.375 0.125 0.75 0.375 0.25 0.75 0.375 0.375 0.75 0.375 0.5 0.75 0.375 0.625 0.75 0.375 0.75 0.75 0.375 0.875 0.75 0.375 1 0.75 0.375 0 0.875 0.375 0.125 0.875 0.375 0.25 0.875 0.375 0.375 0.875 0.375 0.5 0.875 0.375 0.625 0.875 0.375 0.75 0.875 0.375 0.875 0.875 0.375 1 0.875 0.375 0 1 0.375 0.125 1 0.375 0.25 1 0.375 0.375 1 0.375 0.5 1 0.375 0.625 1 0.375 0.75 1 0.375 0.875 1 0.375 1 1 0.375 0 0 0.5 0.125 0 0.5 0.25 0 0.5 0.375 0 0.5 0.5 0 0.5 0.625 0 0.5 0.75 0 0.5 0.875 0 0.5 1 0 0.5 0 0.125 0.5 0.125 0.125 0.5 0.25 0.125 0.5 0.375 0.125 0.5 0.5 0.125 0.5 0.625 0.125 0.5 0.75 0.125 0.5 0.875 0.125 0.5 1 0.125 0.5 0 0.25 0.5 0.125 0.25 0.5 0.25 0.25 0.5 0.375 0.25 0.5 0.5 0.25 0.5 0.625 0.25 0.5 0.75 0.25 0.5 0.875 0.25 0.5 1 0.25 0.5 0 0.375 0.5 0.125 0.375 0.5 0.25 0.375 0.5 0.375 0.375 0.5 0.5 0.375 0.5 0.625 0.375 0.5 0.75 0.375 0.5 0.875 0.375 0.5 1 0.375 0.5 0 0.5 0.5 0.125 0.5 0.5 0.25 0.5 0.5 0.375 0.5 0.5 0.5 0.5 0.5 0.625 0.5 0.5 0.75 0.5 0.5 0.875 0.5 0.5 1 0.5 0.5 0 0.625 0.5 0.125 0.625 0.5 0.25 0.625 0.5 0.375 0.625 0.5 0.5 0.625 0.5 0.625 0.625 0.5 0.75 0.625 0.5 0.875 0.625 0.5 1 0.625 0.5 0 0.75 0.5 0.125 0.75 0.5 0.25 0.75 0.5 0.375 0.75 0.5 0.5 0.75 0.5 0.625 0.75 0.5 0.75 0.75 0.5 0.875 0.75 0.5 1 0.75 0.5 0 0.875 0.5 0.125 0.875 0.5 0.25 0.875 0.5 0.375 0.875 0.5 0.5 0.875 0.5 0.625 0.875 0.5 0.75 0.875 0.5 0.875 0.875 0.5 1 0.875 0.5 0 1 0.5 0.125 1 0.5 0.25 1 0.5 0.375 1 0.5 0.5 1 0.5 0.625 1 0.5 0.75 1 0.5 0.875 1 0.5 1 1 0.5 0 0 0.625 0.125 0 0.625 0.25 0 0.625 0.375 0 0.625 0.5 0 0.625 0.625 0 0.625 0.75 0 0.625 0.875 0 0.625 1 0 0.625 0 0.125 0.625 0.125 0.125 0.625 0.25 0.125 0.625 0.375 0.125 0.625 0.5 0.125 0.625 0.625 0.125 0.625 0.75 0.125 0.625 0.875 0.125 0.625 1 0.125 0.625 0 0.25 0.625 0.125 0.25 0.625 0.25 0.25 0.625 0.375 0.25 0.625 0.5 0.25 0.625 0.625 0.25 0.625 0.75 0.25 0.625 0.875 0.25 0.625 1 0.25 0.625 0 0.375 0.625 0.125 0.375 0.625 0.25 0.375 0.625 0.375 0.375 0.625 0.5 0.375 0.625 0.625 0.375 0.625 0.75 0.375 0.625 0.875 0.375 0.625 1 0.375 0.625 0 0.5 0.625 0.125 0.5 0.625 0.25 0.5 0.625 0.375 0.5 0.625 0.5 0.5 0.625 0.625 0.5 0.625 0.75 0.5 0.625 0.875 0.5 0.625 1 0.5 0.625 0 0.625 0.625 0.125 0.625 0.625 0.25 0.625 0.625 0.375 0.625 0.625 0.5 0.625 0.625 0.625 0.625 0.625 0.75 0.625 0.625 0.875 0.625 0.625 1 0.625 0.625 0 0.75 0.625 0.125 0.75 0.625 0.25 0.75 0.625 0.375 0.75 0.625 0.5 0.75 0.625 0.625 0.75 0.625 0.75 0.75 0.625 0.875 0.75 0.625 1 0.75 0.625 0 0.875 0.625 0.125 0.875 0.625 0.25 0.875 0.625 0.375 0.875 0.625 0.5 0.875 0.625 0.625 0.875 0.625 0.75 0.875 0.625 0.875 0.875 0.625 1 0.875 0.625 0 1 0.625 0.125 1 0.625 0.25 1 0.625 0.375 1 0.625 0.5 1 0.625 0.625 1 0.625 0.75 1 0.625 0.875 1 0.625 1 1 0.625 0 0 0.75 0.125 0 0.75 0.25 0 0.75 0.375 0 0.75 0.5 0 0.75 0.625 0 0.75 0.75 0 0.75 0.875 0 0.75 1 0 0.75 0 0.125 0.75 0.125 0.125 0.75 0.25 0.125 0.75 0.375 0.125 0.75 0.5 0.125 0.75 0.625 0.125 0.75 0.75 0.125 0.75 0.875 0.125 0.75 1 0.125 0.75 0 0.25 0.75 0.125 0.25 0.75 0.25 0.25 0.75 0.375 0.25 0.75 0.5 0.25 0.75 0.625 0.25 0.75 0.75 0.25 0.75 0.875 0.25 0.75 1 0.25 0.75 0 0.375 0.75 0.125 0.375 0.75 0.25 0.375 0.75 0.375 0.375 0.75 0.5 0.375 0.75 0.625 0.375 0.75 0.75 0.375 0.75 0.875 0.375 0.75 1 0.375 0.75 0 0.5 0.75 0.125 0.5 0.75 0.25 0.5 0.75 0.375 0.5 0.75 0.5 0.5 0.75 0.625 0.5 0.75 0.75 0.5 0.75 0.875 0.5 0.75 1 0.5 0.75 0 0.625 0.75 0.125 0.625 0.75 0.25 0.625 0.75 0.375 0.625 0.75 0.5 0.625 0.75 0.625 0.625 0.75 0.75 0.625 0.75 0.875 0.625 0.75 1 0.625 0.75 0 0.75 0.75 0.125 0.75 0.75 0.25 0.75 0.75 0.375 0.75 0.75 0.5 0.75 0.75 0.625 0.75 0.75 0.75 0.75 0.75 0.875 0.75 0.75 1 0.75 0.75 0 0.875 0.75 0.125 0.875 0.75 0.25 0.875 0.75 0.375 0.875 0.75 0.5 0.875 0.75 0.625 0.875 0.75 0.75 0.875 0.75 0.875 0.875 0.75 1 0.875 0.75 0 1 0.75 0.125 1 0.75 0.25 1 0.75 0.375 1 0.75 0.5 1 0.75 0.625 1 0.75 0.75 1 0.75 0.875 1 0.75 1 1 0.75 0 0 0.875 0.125 0 0.875 0.25 0 0.875 0.375 0 0.875 0.5 0 0.875 0.625 0 0.875 0.75 0 0.875 0.875 0 0.875 1 0 0.875 0 0.125 0.875 0.125 0.125 0.875 0.25 0.125 0.875 0.375 0.125 0.875 0.5 0.125 0.875 0.625 0.125 0.875 0.75 0.125 0.875 0.875 0.125 0.875 1 0.125 0.875 0 0.25 0.875 0.125 0.25 0.875 0.25 0.25 0.875 0.375 0.25 0.875 0.5 0.25 0.875 0.625 0.25 0.875 0.75 0.25 0.875 0.875 0.25 0.875 1 0.25 0.875 0 0.375 0.875 0.125 0.375 0.875 0.25 0.375 0.875 0.375 0.375 0.875 0.5 0.375 0.875 0.625 0.375 0.875 0.75 0.375 0.875 0.875 0.375 0.875 1 0.375 0.875 0 0.5 0.875 0.125 0.5 0.875 0.25 0.5 0.875 0.375 0.5 0.875 0.5 0.5 0.875 0.625 0.5 0.875 0.75 0.5 0.875 0.875 0.5 0.875 1 0.5 0.875 0 0.625 0.875 0.125 0.625 0.875 0.25 0.625 0.875 0.375 0.625 0.875 0.5 0.625 0.875 0.625 0.625 0.875 0.75 0.625 0.875 0.875 0.625 0.875 1 0.625 0.875 0 0.75 0.875 0.125 0.75 0.875 0.25 0.75 0.875 0.375 0.75 0.875 0.5 0.75 0.875 0.625 0.75 0.875 0.75 0.75 0.875 0.875 0.75 0.875 1 0.75 0.875 0 0.875 0.875 0.125 0.875 0.875 0.25 0.875 0.875 0.375 0.875 0.875 0.5 0.875 0.875 0.625 0.875 0.875 0.75 0.875 0.875 0.875 0.875 0.875 1 0.875 0.875 0 1 0.875 0.125 1 0.875 0.25 1 0.875 0.375 1 0.875 0.5 1 0.875 0.625 1 0.875 0.75 1 0.875 0.875 1 0.875 1 1 0.875 0 0 1 0.125 0 1 0.25 0 1 0.375 0 1 0.5 0 1 0.625 0 1 0.75 0 1 0.875 0 1 1 0 1 0 0.125 1 0.125 0.125 1 0.25 0.125 1 0.375 0.125 1 0.5 0.125 1 0.625 0.125 1 0.75 0.125 1 0.875 0.125 1 1 0.125 1 0 0.25 1 0.125 0.25 1 0.25 0.25 1 0.375 0.25 1 0.5 0.25 1 0.625 0.25 1 0.75 0.25 1 0.875 0.25 1 1 0.25 1 0 0.375 1 0.125 0.375 1 0.25 0.375 1 0.375 0.375 1 0.5 0.375 1 0.625 0.375 1 0.75 0.375 1 0.875 0.375 1 1 0.375 1 0 0.5 1 0.125 0.5 1 0.25 0.5 1 0.375 0.5 1 0.5 0.5 1 0.625 0.5 1 0.75 0.5 1 0.875 0.5 1 1 0.5 1 0 0.625 1 0.125 0.625 1 0.25 0.625 1 0.375 0.625 1 0.5 0.625 1 0.625 0.625 1 0.75 0.625 1 0.875 0.625 1 1 0.625 1 0 0.75 1 0.125 0.75 1 0.25 0.75 1 0.375 0.75 1 0.5 0.75 1 0.625 0.75 1 0.75 0.75 1 0.875 0.75 1 1 0.75 1 0 0.875 1 0.125 0.875 1 0.25 0.875 1 0.375 0.875 1 0.5 0.875 1 0.625 0.875 1 0.75 0.875 1 0.875 0.875 1 1 0.875 1 0 1 1 0.125 1 1 0.25 1 1 0.375 1 1 0.5 1 1 0.625 1 1 0.75 1 1 0.875 1 1 1 1 1         </DataArray>
      </Points>
    </Piece>
  </StructuredGrid>
</VTKFile>
