<?xml version="1.0"?>
<VTKFile type="StructuredGrid" version="0.1" byte_order="LittleEndian">
  <StructuredGrid WholeExtent="0 8 0 8 0 8">
    <Piece Extent="0 8 0 8 0 8">
      <PointData>
      </PointData>
      <CellData>
        <DataArray Name="vy" NumberOfComponents="1" type="Float32" format="ascii">
0.41748784431318031185 0.68350544020145032054 0.73025276259098437226 0.73393947438287698848 0.7339390548120666713 0.73025314113382433501 0.68350513475604035563 0.41748794413824918959 0.42695678045150187163 0.68780936737985309826 0.73655057493343933928 0.74142393160434061361 0.7414236226334288693 0.73655092259962728907 0.68780905498308309021 0.42695682966653664137 0.41374377693793096267 0.67555029264369492736 0.72799872441441459969 0.7342760520447281225 0.73427663018323852118 0.72799806461378580025 0.67555088564906118354 0.41374360552483346876 0.40035232582910129651 0.6588790734654865755 0.7139658047966938037 0.72121721007247874269 0.72121639262316050711 0.71396673365881579976 0.65887822564531617342 0.40035262797148379876 0.3998857452375791377 0.65825867175203800485 0.71548159004635114577 0.72345528241687206972 0.72345591936513387044 0.71548081566390520081 0.65825941181366409705 0.39988545885195431184 0.37842754831807134952 0.6316247901569337353 0.6905234762784031588 0.69926867777907053547 0.69926849238330435199 0.69052382040109194783 0.63162438246805729936 0.37842774206242202339 0.40415856213640899419 0.66133305155129862296 0.71935510670449420711 0.72779891785956296602 0.72779851650705895683 0.71935535096724889659 0.66133295213572274029 0.40415856287184764861 0.34848418733323155427 0.59357295570110635285 0.65222022663696332945 0.66166265109146549239 0.66166366130821441249 0.65221941023552532091 0.59357344120452804059 0.34848408690207677285 0.68350543982710310065 1.1290574722025881194 1.2038084692401425091 1.2088721218455067419 1.2088753873251008031 1.2038057630029754819 1.129059412746913571 0.6835051347661610377 0.68780936790620084142 1.135940641898002923 1.2163018619673160448 1.2230743640964736318 1.2230772860536858193 1.2162990794064660882 1.1359429014786386336 0.68780905496878619321 0.67555029201054195287 1.1343674239345258314 1.2225652330820686586 1.2316059913801864489 1.2316055916642523194 1.2225660944795486706 1.1343663915238004769 0.67555088566623111568 0.65887907413181701077 1.12385640730837566 1.2192957812608666845 1.2303026280120898939 1.2303051411246554991 1.2192930391143139701 1.1238589301352548411 0.65887822562724540632 0.65825867108799529515 1.1308408633491151551 1.2326077572908678004 1.2452873368980035274 1.2452868403163372957 1.2326087584979408263 1.1308396287428950089 0.65825941183157588021 0.6316247906773597709 1.1063228675545964119 1.2151916062619025904 1.2300236669823629843 1.2300232206814925018 1.2151915704284279585 1.1063232674598053595 0.63162438245395702285 0.6613330514391627668 1.1417990508392590332 1.2515686454169376862 1.2664986313852224509 1.2665006255818254122 1.2515671508670962453 1.1417998782575793371 0.66133295213874310203 0.59357295319945302392 1.0701475048282900193 1.1876974456831252969 1.2059858442255544375 1.2059814463409543883 1.1877012410601208714 1.0701448774420205812 0.59357344127195543759 0.73025276390736870713 1.2038084678637424041 1.2823009938850107314 1.2873757568843298138 1.2873711631026825142 1.2823047888566652119 1.2038057630409080279 0.73025314109824934761 0.7365505730859356337 1.2163018646603158679 1.3011953893241310354 1.3080561681555491482 1.3080527432133506327 1.3011987058282712404 1.2162990793337269402 0.73655092264973864857 0.72799872659522979479 1.2225652304825418426 1.3162996700420335205 1.325503392789871393 1.3255030821285047615 1.3162992429966886565 1.2225660945503296073 0.7279980645546266782 0.71396580249148544617 1.2192957843538656526 1.3212814831436567875 1.3325821472094498965 1.3325797706223176942 1.3212842745461688132 1.2192930390308394095 0.71396673372119046075 0.71548159240030317907 1.2326077541718838404 1.3420411945029873113 1.3550978842493763832 1.3550976257689832938 1.342040684671253814 1.2326087585821736692 0.71548081560031262516 0.69052347411310688319 1.2151916100427597733 1.3334951730712985007 1.348986143584674835 1.3489874570642843565 1.3334945722750459751 1.2151915703263691526 0.69052382045954185941 0.7193551079010793714 1.2515686407731205776 1.3715671224693972707 1.3872148961500849751 1.38721168501222758 1.3715696005827646697 1.2515671509925259119 0.71935535093469238355 0.652220235659962011 1.1876974335852632514 1.318576499803481239 1.3381659487087835814 1.3381722317505477804 1.3185710560873522557 1.1877012413860579265 0.65221940999213756651 0.73393947171033047105 1.2088721253586030002 1.2873757544271640096 1.2923250046819829695 1.2923305524641675035 1.2873711631703159686 1.2088753872284410118 0.73393905488421784522 0.74142393532734751638 1.2230743572723663526 1.3080561729548143557 1.3147723750986266555 1.3147758748463329592 1.3080527430841493164 1.2230772862378644916 0.7414236225326028551 0.73427604772165544489 1.2316059978160447397 1.3255033884212910067 1.3346078615753846908 1.3346091114168532332 1.3255030822475970531 1.2316055914893520029 0.73427663030057344073 0.7212172146529035599 1.2303026203516029824 1.3325821523878575992 1.3437862208454767199 1.3437880490036762104 1.3325797704827402335 1.2303051413316841156 0.72121639249947544492 0.72345527764814798743 1.2452873448464376605 1.3550978786859728675 1.3680602818682401356 1.3680614952612184521 1.3550976259195832707 1.2452868401020162903 0.72345591949421861333 0.69926868246550677455 1.2300236569332718695 1.3489861513947782878 1.3643955884907770226 1.3643934095554921537 1.3489874568539468314 1.2300232209530530536 0.69926849225704790225 0.72779891475864755268 1.2664986445089458922 1.3872148841879312631 1.4027615387995735485 1.4027656125727219205 1.3872116853356311061 1.2665006252278963039 0.72779851659122152263 0.66166263267579761287 1.2059858751074015171 1.3381659269234422727 1.3576825293705645503 1.3576752405962551062 1.3381722323380202955 1.2059814455085358098 0.66166366180513214168 0.73393905878846910085 1.2088753816350821246 1.2873711682005177792 1.2923305496224217759 1.2923250047602519164 1.2873757567441068694 1.208872122001902305 0.73393947427554118157 0.74142361711615445419 1.2230772969551768625 1.3080527332989144718 1.31477588055510064 1.3147723749451765141 1.3080561684225540109 1.2230743638028469533 0.74142393175369392111 0.7342766365846522536 1.2316055813649884332 1.3255030911411143091 1.3346091064582112917 1.3346078617105290309 1.325503392544857606 1.2316059916604935598 0.73427605187147970689 0.72121638581240044008 1.2303051534716702431 1.3325797598600357396 1.3437880550209921893 1.343786220683218291 1.3325821475001033978 1.2303026276793509464 0.72121721025698981578 0.72345592655350032807 1.24528682739411245 1.3550976373977718925 1.3680614887542237312 1.3680602820443805712 1.3550978839355127814 1.245287337247140691 0.72345528222318011835 0.69926848525032825332 1.2300232371679109544 1.3489874406572672783 1.3643934192648068393 1.3643955882291962656 1.3489861440274768523 1.2300236665383668111 0.6992686779718328971 0.72779852140458056731 1.2665006040728414849 1.387211710160826339 1.4027655971336427942 1.402761539216595521 1.3872148954718357405 1.26649863196617396 0.7277989177276311672 0.66166368871627068149 1.2059813967172410276 1.338172276945398087 1.3576752147939286086 1.357682530066536275 1.3381659474899689766 1.2059858455642651354 0.66166265035193827515 0.73025313646999223671 1.2038057700965270058 1.2823047818697570488 1.2873711682681521218 1.2873757542869406212 1.2823009940768677062 1.2038084690455330694 0.7302527627168455826 0.73655092909172648064 1.2162990662159156585 1.3011987190215015264 1.3080527331697153759 1.3080561732218196624 1.3011953889686602714 1.2163018623228571968 0.73655057475772545139 0.72799805699658703961 1.2225661074315983257 1.3162992305126293147 1.3255030912602077109 1.3255033881762783299 1.3162996703812457344 1.2225652327301959055 0.7279987246205786855 0.71396674186915731752 1.2192930236494357032 1.3212842893753833362 1.3325797597204596112 1.3325821526785111004 1.3212814827436112353 1.2192957816776839319 0.71396580457466030101 0.71548080707720518312 1.2326087747488112534 1.3420406686889698733 1.3550976375483723135 1.3550978783721092658 1.3420411949341917168 1.2326077568526607742 0.7154815902778286496 0.69052382870072648302 1.2151915505890127367 1.3334945938173528024 1.348987440446929531 1.3489861518375814153 1.333495172490652303 1.2151916067961396895 0.69052347605458086477 0.71935534576367365922 1.2515671756067181519 1.3715695689406057767 1.3872117104842303092 1.3872148835096820285 1.3715671233226607306 1.2515686447495835143 0.71935510684459713637 0.65221937832950116487 1.1877013015004123098 1.318570995472355678 1.338172277532869936 1.3381659257046274458 1.3185765014384704941 1.187697444052060014 0.6522202274982621395 0.68350513903224552337 1.1290594058977523328 1.2038057701344599959 1.2088753815384229995 1.2088721255149998957 1.2038084676691345187 1.1290574723902202514 0.68350544008603597579 0.68780904902906492282 1.1359429140077881293 1.2162990661431769546 1.2230772971393553128 1.2230743569787403402 1.2163018650158581302 1.1359406415600634688 0.68780936754090293839 0.67555089274068047533 1.1343663787787716668 1.2225661075023785962 1.2316055811900883388 1.2316059980963518505 1.2225652301306695335 1.134367424280382064 0.67555029245167130814 0.65887821793705547702 1.1238589453900376114 1.2192930235659615867 1.2303051536786970832 1.2303026200188655892 1.2192957847706826779 1.1238564068972469734 0.65887907367364162425 0.65825941970528245584 1.1308396130244637856 1.2326087748330429861 1.2452868271797918887 1.2452873451955750461 1.2326077537336774803 1.1308408637724425283 0.65825867153924189079 0.63162437545591287869 1.1063232849560979965 1.2151915504869537088 1.2300232374394710622 1.2300236564892772506 1.2151916105769968723 1.1063228670835936196 0.63162479034567198255 0.66133295513541756616 1.1417998601504844025 1.2515671757321475965 1.2665006037189112664 1.2664986450898982895 1.2515686401057661836 1.1417990513270876995 0.6613330514705059171 0.59357346966811053157 1.0701448206063053359 1.1877013018263469224 1.205981395884821783 1.2059858764461119929 1.1876974319541979686 1.0701475063623839823 0.59357295493245043616 0.41748794204096811855 0.68350513904236687157 0.73025313643441636113 0.73393905886062049682 0.73393947160299399801 0.73025276403322991747 0.68350543971168897794 0.4174878443695642094 0.42695683249913518598 0.68780904901476935809 0.73655092914183750707 0.74142361701532888407 0.74142393547670115694 0.73655057291022141275 0.68780936806725101462 0.42695678037491552326 0.41374360215573602328 0.67555089275785129566 0.72799805693742847268 0.73427663670198750623 0.73427604754840791745 0.72799872680139376957 0.67555029181851888875 0.41374377702892273234 0.40035263166657131251 0.65887821791898604218 0.71396674193153231158 0.72121638568871704322 0.72121721483741529912 0.71396580226945249859 0.65887907433997272566 0.4003523257291688453 0.39988545526607288672 0.65825941972319546025 0.71548080701361349565 0.72345592668258595914 0.72345527745445725731 0.71548159263178123801 0.6582586708752007354 0.39988574533423060231 0.37842774469940104742 0.63162437544181393445 0.69052382875917683869 0.69926848512407324687 0.69926868265827013538 0.69052347388928558836 0.63162479086609923939 0.3784275482469093288 0.40415856330577754063 0.66133295513843903812 0.71935534573111770129 0.7277985214887445764 0.72779891462671719715 0.71935510804118452111 0.66133305135837161526 0.40415856212455064655 0.3484840738533311888 0.5935734697355385947 0.65221937808611374354 0.66166368921318918783 0.66166263193627194994 0.6522202365212620423 0.59357295243079755132 0.34848418768554456637 
        </DataArray>
      </CellData>
      <Points>
        <DataArray Name="m" NumberOfComponents="3" type="Float32" format="ascii">
0 0 0 0.125 0 0 0.25 0 0 0.375 0 0 0.5 0 0 0.625 0 0 0.75 0 0 0.875 0 0 1 0 0 0 0.125 0 0.125 0.125 0 0.25 0.125 0 0.375 0.125 0 0.5 0.125 0 0.625 0.125 0 0.75 0.125 0 0.875 0.125 0 1 0.125 0 0 0.25 0 0.125 0.25 0 0.25 0.25 0 0.375 0.25 0 0.5 0.25 0 0.625 0.25 0 0.75 0.25 0 0.875 0.25 0 1 0.25 0 0 0.375 0 0.125 0.375 0 0.25 0.375 0 0.375 0.375 0 0.5 0.375 0 0.625 0.375 0 0.75 0.375 0 0.875 0.375 0 1 0.375 0 0 0.5 0 0.125 0.5 0 0.25 0.5 0 0.375 0.5 0 0.5 0.5 0 0.625 0.5 0 0.75 0.5 0 0.875 0.5 0 1 0.5 0 0 0.625 0 0.125 0.625 0 0.25 0.625 0 0.375 0.625 0 0.5 0.625 0 0.625 0.625 0 0.75 0.625 0 0.875 0.625 0 1 0.625 0 0 0.75 0 0.125 0.75 0 0.25 0.75 0 0.375 0.75 0 0.5 0.75 0 0.625 0.75 0 0.75 0.75 0 0.875 0.75 0 1 0.75 0 0 0.875 0 0.125 0.875 0 0.25 0.875 0 0.375 0.875 0 0.5 0.875 0 0.625 0.875 0 0.75 0.875 0 0.875 0.875 0 1 0.875 0 0 1 0 0.125 1 0 0.25 1 0 0.375 1 0 0.5 1 0 0.625 1 0 0.75 1 0 0.875 1 0 1 1 0 0 0 0.125 0.125 0 0.125 0.25 0 0.125 0.375 0 0.125 0.5 0 0.125 0.625 0 0.125 0.75 0 0.125 0.875 0 0.125 1 0 0.125 0 0.125 0.125 0.125 0.125 0.125 0.25 0.125 0.125 0.375 0.125 0.125 0.5 0.125 0.125 0.625 0.125 0.125 0.75 0.125 0.125 0.875 0.125 0.125 1 0.125 0.125 0 0.25 0.125 0.125 0.25 0.125 0.25 0.25 0.125 0.375 0.25 0.125 0.5 0.25 0.125 0.625 0.25 0.125 0.75 0.25 0.125 0.875 0.25 0.125 1 0.25 0.125 0 0.375 0.125 0.125 0.375 0.125 0.25 0.375 0.125 0.375 0.375 0.125 0.5 0.375 0.125 0.625 0.375 0.125 0.75 0.375 0.125 0.875 0.375 0.125 1 0.375 0.125 0 0.5 0.125 0.125 0.5 0.125 0.25 0.5 0.125 0.375 0.5 0.125 0.5 0.5 0.125 0.625 0.5 0.125 0.75 0.5 0.125 0.875 0.5 0.125 1 0.5 0.125 0 0.625 0.125 0.125 0.625 0.125 0.25 0.625 0.125 0.375 0.625 0.125 0.5 0.625 0.125 0.625 0.625 0.125 0.75 0.625 0.125 0.875 0.625 0.125 1 0.625 0.125 0 0.75 0.125 0.125 0.75 0.125 0.25 0.75 0.125 0.375 0.75 0.125 0.5 0.75 0.125 0.625 0.75 0.125 0.75 0.75 0.125 0.875 0.75 0.125 1 0.75 0.125 0 0.875 0.125 0.125 0.875 0.125 0.25 0.875 0.125 0.375 0.875 0.125 0.5 0.875 0.125 0.625 0.875 0.125 0.75 0.875 0.125 0.875 0.875 0.125 1 0.875 0.125 0 1 0.125 0.125 1 0.125 0.25 1 0.125 0.375 1 0.125 0.5 1 0.125 0.625 1 0.125 0.75 1 0.125 0.875 1 0.125 1 1 0.125 0 0 0.25 0.125 0 0.25 0.25 0 0.25 0.375 0 0.25 0.5 0 0.25 0.625 0 0.25 0.75 0 0.25 0.875 0 0.25 1 0 0.25 0 0.125 0.25 0.125 0.125 0.25 0.25 0.125 0.25 0.375 0.125 0.25 0.5 0.125 0.25 0.625 0.125 0.25 0.75 0.125 0.25 0.875 0.125 0.25 1 0.125 0.25 0 0.25 0.25 0.125 0.25 0.25 0.25 0.25 0.25 0.375 0.25 0.25 0.5 0.25 0.25 0.625 0.25 0.25 0.75 0.25 0.25 0.875 0.25 0.25 1 0.25 0.25 0 0.375 0.25 0.125 0.375 0.25 0.25 0.375 0.25 0.375 0.375 0.25 0.5 0.375 0.25 0.625 0.375 0.25 0.75 0.375 0.25 0.875 0.375 0.25 1 0.375 0.25 0 0.5 0.25 0.125 0.5 0.25 0.25 0.5 0.25 0.375 0.5 0.25 0.5 0.5 0.25 0.625 0.5 0.25 0.75 0.5 0.25 0.875 0.5 0.25 1 0.5 0.25 0 0.625 0.25 0.125 0.625 0.25 0.25 0.625 0.25 0.375 0.625 0.25 0.5 0.625 0.25 0.625 0.625 0.25 0.75 0.625 0.25 0.875 0.625 0.25 1 0.625 0.25 0 0.75 0.25 0.125 0.75 0.25 0.25 0.75 0.25 0.375 0.75 0.25 0.5 0.75 0.25 0.625 0.75 0.25 0.75 0.75 0.25 0.875 0.75 0.25 1 0.75 0.25 0 0.875 0.25 0.125 0.875 0.25 0.25 0.875 0.25 0.375 0.875 0.25 0.5 0.875 0.25 0.625 0.875 0.25 0.75 0.875 0.25 0.875 0.875 0.25 1 0.875 0.25 0 1 0.25 0.125 1 0.25 0.25 1 0.25 0.375 1 0.25 0.5 1 0.25 0.625 1 0.25 0.75 1 0.25 0.875 1 0.25 1 1 0.25 0 0 0.375 0.125 0 0.375 0.25 0 0.375 0.375 0 0.375 0.5 0 0.375 0.625 0 0.375 0.75 0 0.375 0.875 0 0.375 1 0 0.375 0 0.125 0.375 0.125 0.125 0.375 0.25 0.125 0.375 0.375 0.125 0.375 0.5 0.125 0.375 0.625 0.125 0.375 0.75 0.125 0.375 0.875 0.125 0.375 1 0.125 0.375 0 0.25 0.375 0.125 0.25 0.375 0.25 0.25 0.375 0.375 0.25 0.375 0.5 0.25 0.375 0.625 0.25 0.375 0.75 0.25 0.375 0.875 0.25 0.375 1 0.25 0.375 0 0.375 0.375 0.125 0.375 0.375 0.25 0.375 0.375 0.375 0.375 0.375 0.5 0.375 0.375 0.625 0.375 0.375 0.75 0.375 0.375 0.875 0.375 0.375 1 0.375 0.375 0 0.5 0.375 0.125 0.5 0.375 0.25 0.5 0.375 0.375 0.5 0.375 0.5 0.5 0.375 0.625 0.5 0.375 0.75 0.5 0.375 0.875 0.5 0.375 1 0.5 0.375 0 0.625 0.375 0.125 0.625 0.375 0.25 0.625 0.375 0.375 0.625 0.375 0.5 0.625 0.375 0.625 0.625 0.375 0.75 0.625 0.375 0.875 0.625 0.375 1 0.625 0.375 0 0.75 0.375 0.125 0.75 0.375 0.25 0.75 0.375 0.375 0.75 0.375 0.5 0.75 0.375 0.625 0.75 0.375 0.75 0.75 0.375 0.875 0.75 0.375 1 0.75 0.375 0 0.875 0.375 0.125 0.875 0.375 0.25 0.875 0.375 0.375 0.875 0.375 0.5 0.875 0.375 0.625 0.875 0.375 0.75 0.875 0.375 0.875 0.875 0.375 1 0.875 0.375 0 1 0.375 0.125 1 0.375 0.25 1 0.375 0.375 1 0.375 0.5 1 0.375 0.625 1 0.375 0.75 1 0.375 0.875 1 0.375 1 1 0.375 0 0 0.5 0.125 0 0.5 0.25 0 0.5 0.375 0 0.5 0.5 0 0.5 0.625 0 0.5 0.75 0 0.5 0.875 0 0.5 1 0 0.5 0 0.125 0.5 0.125 0.125 0.5 0.25 0.125 0.5 0.375 0.125 0.5 0.5 0.125 0.5 0.625 0.125 0.5 0.75 0.125 0.5 0.875 0.125 0.5 1 0.125 0.5 0 0.25 0.5 0.125 0.25 0.5 0.25 0.25 0.5 0.375 0.25 0.5 0.5 0.25 0.5 0.625 0.25 0.5 0.75 0.25 0.5 0.875 0.25 0.5 1 0.25 0.5 0 0.375 0.5 0.125 0.375 0.5 0.25 0.375 0.5 0.375 0.375 0.5 0.5 0.375 0.5 0.625 0.375 0.5 0.75 0.375 0.5 0.875 0.375 0.5 1 0.375 0.5 0 0.5 0.5 0.125 0.5 0.5 0.25 0.5 0.5 0.375 0.5 0.5 0.5 0.5 0.5 0.625 0.5 0.5 0.75 0.5 0.5 0.875 0.5 0.5 1 0.5 0.5 0 0.625 0.5 0.125 0.625 0.5 0.25 0.625 0.5 0.375 0.625 0.5 0.5 0.625 0.5 0.625 0.625 0.5 0.75 0.625 0.5 0.875 0.625 0.5 1 0.625 0.5 0 0.75 0.5 0.125 0.75 0.5 0.25 0.75 0.5 0.375 0.75 0.5 0.5 0.75 0.5 0.625 0.75 0.5 0.75 0.75 0.5 0.875 0.75 0.5 1 0.75 0.5 0 0.875 0.5 0.125 0.875 0.5 0.25 0.875 0.5 0.375 0.875 0.5 0.5 0.875 0.5 0.625 0.875 0.5 0.75 0.875 0.5 0.875 0.875 0.5 1 0.875 0.5 0 1 0.5 0.125 1 0.5 0.25 1 0.5 0.375 1 0.5 0.5 1 0.5 0.625 1 0.5 0.75 1 0.5 0.875 1 0.5 1 1 0.5 0 0 0.625 0.125 0 0.625 0.25 0 0.625 0.375 0 0.625 0.5 0 0.625 0.625 0 0.625 0.75 0 0.625 0.875 0 0.625 1 0 0.625 0 0.125 0.625 0.125 0.125 0.625 0.25 0.125 0.625 0.375 0.125 0.625 0.5 0.125 0.625 0.625 0.125 0.625 0.75 0.125 0.625 0.875 0.125 0.625 1 0.125 0.625 0 0.25 0.625 0.125 0.25 0.625 0.25 0.25 0.625 0.375 0.25 0.625 0.5 0.25 0.625 0.625 0.25 0.625 0.75 0.25 0.625 0.875 0.25 0.625 1 0.25 0.625 0 0.375 0.625 0.125 0.375 0.625 0.25 0.375 0.625 0.375 0.375 0.625 0.5 0.375 0.625 0.625 0.375 0.625 0.75 0.375 0.625 0.875 0.375 0.625 1 0.375 0.625 0 0.5 0.625 0.125 0.5 0.625 0.25 0.5 0.625 0.375 0.5 0.625 0.5 0.5 0.625 0.625 0.5 0.625 0.75 0.5 0.625 0.875 0.5 0.625 1 0.5 0.625 0 0.625 0.625 0.125 0.625 0.625 0.25 0.625 0.625 0.375 0.625 0.625 0.5 0.625 0.625 0.625 0.625 0.625 0.75 0.625 0.625 0.875 0.625 0.625 1 0.625 0.625 0 0.75 0.625 0.125 0.75 0.625 0.25 0.75 0.625 0.375 0.75 0.625 0.5 0.75 0.625 0.625 0.75 0.625 0.75 0.75 0.625 0.875 0.75 0.625 1 0.75 0.625 0 0.875 0.625 0.125 0.875 0.625 0.25 0.875 0.625 0.375 0.875 0.625 0.5 0.875 0.625 0.625 0.875 0.625 0.75 0.875 0.625 0.875 0.875 0.625 1 0.875 0.625 0 1 0.625 0.125 1 0.625 0.25 1 0.625 0.375 1 0.625 0.5 1 0.625 0.625 1 0.625 0.75 1 0.625 0.875 1 0.625 1 1 0.625 0 0 0.75 0.125 0 0.75 0.25 0 0.75 0.375 0 0.75 0.5 0 0.75 0.625 0 0.75 0.75 0 0.75 0.875 0 0.75 1 0 0.75 0 0.125 0.75 0.125 0.125 0.75 0.25 0.125 0.75 0.375 0.125 0.75 0.5 0.125 0.75 0.625 0.125 0.75 0.75 0.125 0.75 0.875 0.125 0.75 1 0.125 0.75 0 0.25 0.75 0.125 0.25 0.75 0.25 0.25 0.75 0.375 0.25 0.75 0.5 0.25 0.75 0.625 0.25 0.75 0.75 0.25 0.75 0.875 0.25 0.75 1 0.25 0.75 0 0.375 0.75 0.125 0.375 0.75 0.25 0.375 0.75 0.375 0.375 0.75 0.5 0.375 0.75 0.625 0.375 0.75 0.75 0.375 0.75 0.875 0.375 0.75 1 0.375 0.75 0 0.5 0.75 0.125 0.5 0.75 0.25 0.5 0.75 0.375 0.5 0.75 0.5 0.5 0.75 0.625 0.5 0.75 0.75 0.5 0.75 0.875 0.5 0.75 1 0.5 0.75 0 0.625 0.75 0.125 0.625 0.75 0.25 0.625 0.75 0.375 0.625 0.75 0.5 0.625 0.75 0.625 0.625 0.75 0.75 0.625 0.75 0.875 0.625 0.75 1 0.625 0.75 0 0.75 0.75 0.125 0.75 0.75 0.25 0.75 0.75 0.375 0.75 0.75 0.5 0.75 0.75 0.625 0.75 0.75 0.75 0.75 0.75 0.875 0.75 0.75 1 0.75 0.75 0 0.875 0.75 0.125 0.875 0.75 0.25 0.875 0.75 0.375 0.875 0.75 0.5 0.875 0.75 0.625 0.875 0.75 0.75 0.875 0.75 0.875 0.875 0.75 1 0.875 0.75 0 1 0.75 0.125 1 0.75 0.25 1 0.75 0.375 1 0.75 0.5 1 0.75 0.625 1 0.75 0.75 1 0.75 0.875 1 0.75 1 1 0.75 0 0 0.875 0.125 0 0.875 0.25 0 0.875 0.375 0 0.875 0.5 0 0.875 0.625 0 0.875 0.75 0 0.875 0.875 0 0.875 1 0 0.875 0 0.125 0.875 0.125 0.125 0.875 0.25 0.125 0.875 0.375 0.125 0.875 0.5 0.125 0.875 0.625 0.125 0.875 0.75 0.125 0.875 0.875 0.125 0.875 1 0.125 0.875 0 0.25 0.875 0.125 0.25 0.875 0.25 0.25 0.875 0.375 0.25 0.875 0.5 0.25 0.875 0.625 0.25 0.875 0.75 0.25 0.875 0.875 0.25 0.875 1 0.25 0.875 0 0.375 0.875 0.125 0.375 0.875 0.25 0.375 0.875 0.375 0.375 0.875 0.5 0.375 0.875 0.625 0.375 0.875 0.75 0.375 0.875 0.875 0.375 0.875 1 0.375 0.875 0 0.5 0.875 0.125 0.5 0.875 0.25 0.5 0.875 0.375 0.5 0.875 0.5 0.5 0.875 0.625 0.5 0.875 0.75 0.5 0.875 0.875 0.5 0.875 1 0.5 0.875 0 0.625 0.875 0.125 0.625 0.875 0.25 0.625 0.875 0.375 0.625 0.875 0.5 0.625 0.875 0.625 0.625 0.875 0.75 0.625 0.875 0.875 0.625 0.875 1 0.625 0.875 0 0.75 0.875 0.125 0.75 0.875 0.25 0.75 0.875 0.375 0.75 0.875 0.5 0.75 0.875 0.625 0.75 0.875 0.75 0.75 0.875 0.875 0.75 0.875 1 0.75 0.875 0 0.875 0.875 0.125 0.875 0.875 0.25 0.875 0.875 0.375 0.875 0.875 0.5 0.875 0.875 0.625 0.875 0.875 0.75 0.875 0.875 0.875 0.875 0.875 1 0.875 0.875 0 1 0.875 0.125 1 0.875 0.25 1 0.875 0.375 1 0.875 0.5 1 0.875 0.625 1 0.875 0.75 1 0.875 0.875 1 0.875 1 1 0.875 0 0 1 0.125 0 1 0.25 0 1 0.375 0 1 0.5 0 1 0.625 0 1 0.75 0 1 0.875 0 1 1 0 1 0 0.125 1 0.125 0.125 1 0.25 0.125 1 0.375 0.125 1 0.5 0.125 1 0.625 0.125 1 0.75 0.125 1 0.875 0.125 1 1 0.125 1 0 0.25 1 0.125 0.25 1 0.25 0.25 1 0.375 0.25 1 0.5 0.25 1 0.625 0.25 1 0.75 0.25 1 0.875 0.25 1 1 0.25 1 0 0.375 1 0.125 0.375 1 0.25 0.375 1 0.375 0.375 1 0.5 0.375 1 0.625 0.375 1 0.75 0.375 1 0.875 0.375 1 1 0.375 1 0 0.5 1 0.125 0.5 1 0.25 0.5 1 0.375 0.5 1 0.5 0.5 1 0.625 0.5 1 0.75 0.5 1 0.875 0.5 1 1 0.5 1 0 0.625 1 0.125 0.625 1 0.25 0.625 1 0.375 0.625 1 0.5 0.625 1 0.625 0.625 1 0.75 0.625 1 0.875 0.625 1 1 0.625 1 0 0.75 1 0.125 0.75 1 0.25 0.75 1 0.375 0.75 1 0.5 0.75 1 0.625 0.75 1 0.75 0.75 1 0.875 0.75 1 1 0.75 1 0 0.875 1 0.125 0.875 1 0.25 0.875 1 0.375 0.875 1 0.5 0.875 1 0.625 0.875 1 0.75 0.875 1 0.875 0.875 1 1 0.875 1 0 1 1 0.125 1 1 0.25 1 1 0.375 1 1 0.5 1 1 0.625 1 1 0.75 1 1 0.875 1 1 1 1 1         </DataArray>
      </Points>
    </Piece>
  </StructuredGrid>
</VTKFile>
