<?xml version="1.0"?>
<VTKFile type="StructuredGrid" version="0.1" byte_order="LittleEndian">
  <StructuredGrid WholeExtent="0 8 0 8 0 8">
    <Piece Extent="0 8 0 8 0 8">
      <PointData>
      </PointData>
      <CellData>
        <DataArray Name="vy" NumberOfComponents="1" type="Float32" format="ascii">
392.55552154460565362 2404.7132329745672905 3314.9445472176876137 4552.0459516900500603 3293.1597614501342832 2149.123422715425022 2592.9412881804887547 8465.4317243553996377 -3158.3679056482696978 5546.3311522681988208 4485.4481651737987704 5372.9997568629669331 2482.6284933007441396 1687.1664970859626465 5268.932637581682684 10086.829687473833474 2791.3496771956106386 2820.0600435566866508 3927.1351896884398229 6446.8997387071331104 4648.773548251900138 1265.6952183334383335 291.87165996590630357 7672.4050141280276875 1461.8507121611371531 -383.52034487789705963 3313.27263183183004 5785.3907520466946153 8334.7872551654181734 6262.3098626565724771 6421.8434896418057178 8665.4611669522328157 783.33330254499810508 2444.0030097004755589 4782.1227151745770243 4345.9950638103819074 5467.0300664020396653 4247.5765171263774391 5064.6975392935992204 7974.827620677534469 -1351.1391674776455147 -1065.4097470345104739 8196.2941909038418089 3986.6454223105979509 3428.033036720990367 4729.4216463256270799 5347.1386147127677759 6055.304848027267326 -635.65358995006977239 4548.2377828288936144 5756.3507015600634986 3089.4709459779496683 2375.4504739756425806 2428.2018806985115589 3003.6712568869415918 3963.0687026743130446 -1725.2414627471443964 4998.3119798739071484 3319.2483579345434919 4850.5704439540695603 2565.0663899296032469 -930.79555285435537826 10077.771319885599951 12162.139260719824961 -2217.2825568155703877 -6374.1809712004278481 1304.4230379147040821 -4697.5384270348477003 -2356.5708631956258614 -4221.3075297875475371 -4396.6657831381326105 6360.6289858717136667 -1557.1884064516880244 1436.2174694403197464 918.92726930196795365 842.20674834465955882 3205.8359869782775604 7388.5924710397639501 12730.157769493194792 3405.8042572217218549 -5075.23296551005933 -2375.7027052010275838 737.49974077620834123 -1424.0782445810580157 -1673.8105002849026732 2349.088303037634887 1385.6809102928759785 5579.6986598006278655 -3198.124604488472869 -1124.5077357543534617 1911.6980881611809764 1394.7614753934904002 2698.2710208665121172 2218.7382675144058339 3962.3704651619673314 8941.352068217986016 -2529.1506847147547887 -3117.756285452177508 -256.12120265915990558 1466.0188080922785048 2794.6723554036730093 3025.9560862751973218 1568.1067584794575396 8253.7171533984292182 -5067.6368136029941525 -1571.8069431796943718 608.05074827283715422 2219.399336401241726 2523.9206825025571561 4543.6750414225125496 4761.4518466272056685 10502.787407816165796 -4511.6497156395362254 -764.88943776580026679 -1657.4647858201701638 -1167.7331570910414484 -429.60691104554416597 3395.1815430559445304 -2479.6283426540330765 4406.7654505133359635 -1501.7959881872186543 7546.5086339349727496 11592.730917491739092 7816.3435516565859871 1120.9195279251043758 965.88135954922904602 12506.526384867087472 9711.4716563639685774 -979.07877388764927673 -8941.9436101991850592 -1590.8862259274767439 -6274.658385846467354 -5075.0049913389511858 -3570.6390300513066904 -4270.7939597585746014 7546.6352932819472699 724.68672467803901327 -418.82930473708597674 -2561.0574662141934823 5462.2342728713610995 6232.8407514340879061 3003.7085674486543212 5039.3869553627937421 5158.8479851324718766 -2236.0977176405995124 -5308.2211731644902102 -253.4498971048947169 -2993.7139825737663159 -500.59599549414849662 1189.5560278012189883 -115.68385913340597426 6929.2053193511774225 -1331.9213345113735159 -4116.8318254088289905 635.01329688284658914 2640.0096175474523079 1843.4817433911366606 1028.1018463627476649 3320.3609210036997865 8054.2996161809514888 -2762.2909559113877549 -1089.2372721531410207 -1783.2965186922544945 1172.4289441208150038 1728.1163793732926024 2370.8837512728741785 3117.2881711128575262 6107.0405351223826074 -4754.7014180231572027 -2076.6223260069509706 -2493.3625654865440993 -1941.5965437969834966 1492.5929801689317173 2532.4075589342564854 3190.6535550570088162 6241.5966278183623217 -5409.0289705659833999 -4390.1762538802731797 -3130.3130309196094458 -1071.5859124099699784 1563.8684843618984814 3504.4280613553751209 -1870.0681656393971934 2230.5171633860400107 -2355.0458138953104026 1874.6268051430445212 3312.9549341716979143 3548.459033636582717 -2430.1790628279609336 2805.7917294163830775 10400.80165128426961 6883.3920194499532954 -3705.4455652978231228 -14943.732389060120113 -8283.6777376742829802 -10467.303886217367108 -5372.6354389631205777 -947.78124131539505015 813.1912374321121888 6693.2369621951356748 -2340.1418039426789619 3597.339743284670476 3539.8714923385796283 6894.1129530232165052 366.55488581975680518 -120.92000814800957187 1136.8996590285989896 4679.5136836004785437 -3479.7984832432507574 -4340.5833524058816693 -3067.4255920009727561 -1573.2031169592432889 -1249.5674482430956687 634.74141571917220972 1610.7696177480665938 6832.2300015732116663 -3251.7273906279165203 -2836.0936432538296685 -245.08568674523701247 853.46247847521613039 354.91670918502597942 1662.6605567595624962 2751.6609168827262693 8652.3971075410117919 -3479.3858712972423746 -2249.0157783186587039 -2291.9138049441198746 235.85730192971357155 191.35477716371559609 2236.8355247637732646 3599.3272801775428889 8550.8781550949297525 -2808.4010119025888343 -807.11058399344187819 -1480.6452826557842855 2266.9439162087614932 -1903.9025207486408817 1466.0366836514597253 2805.56528438603209 8524.8065932213648921 -2905.4666158684044603 -3355.858869101944947 -2824.0135412892932436 -216.47399700634258579 5032.9351111432524704 3925.4291937964408135 -1327.4090333491076308 4054.6811330487316809 -3078.0683361138449072 2844.6728255623111181 1997.2590731327277354 2201.9685093685261563 193.44241511134396205 747.05914747599649672 8528.5056321075244341 7050.8946240591494643 -7313.5891513320120794 -7098.5627930104437837 63.548211000549372329 1343.2987991852860432 -95.164952773555739896 770.07179691319879566 1446.5053305571755118 6112.5577139568658822 -2256.0244108199990478 427.8951432042513261 -1344.4817436144653584 -3485.4662692393499128 -1769.3466675283641507 -235.66571164530705573 -221.56530310835796627 2759.4276882240719715 -6972.145691667531537 -4733.8615022186959322 -3085.9839665294239239 911.29437772711730759 -412.43637024427914639 1496.0548793127520639 628.63339758010988589 2859.77173229511709 -4448.6064252826554366 -2730.0037454097282534 -1706.519068895836881 -63.480740272346054098 -182.75871973738460952 439.07889976711726376 3588.0336662470817828 3614.0187066700927971 -5436.4420246590680108 -4823.8694226849047482 77.29788169510948137 942.29947208281294024 1120.0969332498034419 2039.2029168887247579 1654.9929466262242386 2907.3965996980195996 -3170.9115587364981366 -2666.5382750651378956 1322.2593993455695909 -612.51543720657355152 -1681.405396588414078 2019.281063585365473 2900.1799055834721912 2113.1377777003567644 -4222.1121979109993845 -5705.1034256172388268 -2224.1435684342027344 1891.1431887781884598 5450.0241897072246502 1035.7610999169414754 5129.8431994860438863 7712.3290872493380448 -4974.3340918921230696 2453.6991956189849589 1464.6262588724466696 1571.8932584876349665 -2242.9772636546940703 658.56632777581125993 2553.2603904428879105 -3078.1925687716620814 -6378.7557395504882152 -1622.3173726742982126 -3859.0594954500211315 1445.8364271726672996 -35.442044754482367352 -590.17587102847949154 -507.20993817569808471 2448.4631759921021512 -208.37413406647738157 -4110.1443679158082887 -2969.7789099601932321 -3502.3137976782909391 1484.8438077036748837 956.9395788448903204 1262.5744414645846518 1800.9875747274040805 -4211.953424885635286 -4983.7601532872122334 -2075.8585173912501887 -1003.3860214858401605 -119.03797317162445779 1634.1075213899484879 -1959.957971985024642 745.15397401155632906 -4040.4878376809124347 -3386.6899679415655555 -1999.0764661301082015 -572.7777533768662579 1410.6332819670390109 1279.5888756980129983 -299.93384365377596623 1084.8491543300710873 -4049.4698225635393101 -5490.7504604422028933 -1664.3178817574023469 -929.27561564579593778 1265.0005240143830179 -1068.240544180759116 423.84269077555723015 1034.0969988789549916 -3591.1253027192483387 -1669.8874130534466076 -1385.0185384386456917 -3874.2945541638173381 1954.7877709126851187 219.17438654138189236 -198.75234703284843363 -331.65852779265060235 -4940.9905583046265747 -2341.8587309780491523 -2493.6393914083955679 2743.0826910662653972 3700.9051693353508199 -2254.0859139143403809 536.7750658153436234 -111.21234741142643543 -5655.3872910967447751 1015.4330515486320792 2777.0282570274453064 -2466.6382827018510397 -3299.9829249303884353 6543.1999772841791128 8185.3126628053414606 2379.7373981191822168 -11245.510177021034906 -6686.7344206648340332 -1421.8335456858403631 -8025.0155139668841002 -7620.7910444695371552 -4292.0520503237767116 -2711.4443532312425305 692.16555634039366396 -712.79773088415913662 -223.14216853763446125 -3454.7547732102939335 2278.1519678388699504 1075.2498774094997316 1090.6912576925951726 1547.8119882673718166 1995.0399097836293549 -5360.8142967073390537 -5185.4867440435991739 -4572.1070898090147239 -2033.9203262075523071 -3462.5527799875844721 -1604.8803888631148311 -759.98690686389772964 3236.3697582958197927 -7017.2040854226788724 -5530.2133964377399025 -2317.1102531606002231 -919.60524336202001905 -2428.7369010955153499 -462.02195115803112913 29.370440039130471632 6056.8591810433654246 -6692.131015631775881 -4553.1817094808593538 -4114.7210625332600102 -1473.860948146782448 1639.7413626045085948 -497.98988961502527673 -690.20284223152100367 4150.6614214334713324 -4637.8764167662966429 -278.5626888883294896 -2643.8529868978484956 -4573.1330386794907099 -3516.1075453350117641 -3515.9957338285998958 289.21781597900940142 3243.523011372966721 -5537.6226080572814681 -5941.5986401737118285 412.34985574435745548 4271.6577458474039304 -1763.3054415440906268 -10643.685612285531533 551.53238507848027439 -185.04742684181883305 -4295.3841793656683876 3630.2813447953894865 2896.3758073069857346 -7189.2091907575122605 -644.60485330986773533 8813.910268476971396 8618.3890229732314765 2058.3321729581375621 -10364.651391630472062 -7049.0519249915751061 -6276.3263253978011562 -7302.5004749772024297 -4146.5754097689696209 -1160.1154970863760809 -1004.5968714593907407 2080.1743646219852053 -5584.83185267421959 -2764.5957339738756673 -2323.2768207076233011 -2518.7943129941804727 -2177.8616100369918058 -948.66527119616080199 -365.0363033749731585 2386.9497398389785303 -8194.9880507948346349 -6032.667419966595844 -4636.0052184142732585 -5817.0953557979346442 -4553.9484731018892489 -5914.5971581397916452 -1304.8564722546507255 3581.9346526572485345 -7933.5115478366151365 -6160.4080352925902844 -4841.3128976370971941 -5233.3058347995183794 -4104.9732822484174903 -6543.7220467224633467 -3049.808356113111131 2621.5007773985262247 -9506.2648217420028232 -4382.7531480573798035 -6645.6685395292415706 -9389.5053335336069722 -2441.0915676592076125 -4137.5151960905686792 -6722.1200948093992338 1605.7043108583011417 -10418.104764271318345 -2404.4696695756865665 -3516.5622833146017001 -7217.5306486610115826 -5075.3896318640363461 -1018.6486752269569251 -3332.8935686101726787 523.78920927491003567 -10786.397494187927805 -3392.6294669028557109 -2886.9458193364671388 -3589.1177296011719591 -5468.6645513159064649 -1219.5952878213436179 -918.06166244024643674 3184.9053904131842501 -8333.0818267202121206 -1643.3477274754557129 -4967.2855378974290943 -4066.1567999842009158 -5273.4121969168572832 -7071.4599641887944017 -2515.0279979115421156 -2760.0369228075401224 
        </DataArray>
      </CellData>
      <Points>
        <DataArray Name="m" NumberOfComponents="3" type="Float32" format="ascii">
0 0 0 0.125 0 0 0.25 0 0 0.375 0 0 0.5 0 0 0.625 0 0 0.75 0 0 0.875 0 0 1 0 0 0 0.125 0 0.125 0.125 0 0.25 0.125 0 0.375 0.125 0 0.5 0.125 0 0.625 0.125 0 0.75 0.125 0 0.875 0.125 0 1 0.125 0 0 0.25 0 0.125 0.25 0 0.25 0.25 0 0.375 0.25 0 0.5 0.25 0 0.625 0.25 0 0.75 0.25 0 0.875 0.25 0 1 0.25 0 0 0.375 0 0.125 0.375 0 0.25 0.375 0 0.375 0.375 0 0.5 0.375 0 0.625 0.375 0 0.75 0.375 0 0.875 0.375 0 1 0.375 0 0 0.5 0 0.125 0.5 0 0.25 0.5 0 0.375 0.5 0 0.5 0.5 0 0.625 0.5 0 0.75 0.5 0 0.875 0.5 0 1 0.5 0 0 0.625 0 0.125 0.625 0 0.25 0.625 0 0.375 0.625 0 0.5 0.625 0 0.625 0.625 0 0.75 0.625 0 0.875 0.625 0 1 0.625 0 0 0.75 0 0.125 0.75 0 0.25 0.75 0 0.375 0.75 0 0.5 0.75 0 0.625 0.75 0 0.75 0.75 0 0.875 0.75 0 1 0.75 0 0 0.875 0 0.125 0.875 0 0.25 0.875 0 0.375 0.875 0 0.5 0.875 0 0.625 0.875 0 0.75 0.875 0 0.875 0.875 0 1 0.875 0 0 1 0 0.125 1 0 0.25 1 0 0.375 1 0 0.5 1 0 0.625 1 0 0.75 1 0 0.875 1 0 1 1 0 0 0 0.125 0.125 0 0.125 0.25 0 0.125 0.375 0 0.125 0.5 0 0.125 0.625 0 0.125 0.75 0 0.125 0.875 0 0.125 1 0 0.125 0 0.125 0.125 0.125 0.125 0.125 0.25 0.125 0.125 0.375 0.125 0.125 0.5 0.125 0.125 0.625 0.125 0.125 0.75 0.125 0.125 0.875 0.125 0.125 1 0.125 0.125 0 0.25 0.125 0.125 0.25 0.125 0.25 0.25 0.125 0.375 0.25 0.125 0.5 0.25 0.125 0.625 0.25 0.125 0.75 0.25 0.125 0.875 0.25 0.125 1 0.25 0.125 0 0.375 0.125 0.125 0.375 0.125 0.25 0.375 0.125 0.375 0.375 0.125 0.5 0.375 0.125 0.625 0.375 0.125 0.75 0.375 0.125 0.875 0.375 0.125 1 0.375 0.125 0 0.5 0.125 0.125 0.5 0.125 0.25 0.5 0.125 0.375 0.5 0.125 0.5 0.5 0.125 0.625 0.5 0.125 0.75 0.5 0.125 0.875 0.5 0.125 1 0.5 0.125 0 0.625 0.125 0.125 0.625 0.125 0.25 0.625 0.125 0.375 0.625 0.125 0.5 0.625 0.125 0.625 0.625 0.125 0.75 0.625 0.125 0.875 0.625 0.125 1 0.625 0.125 0 0.75 0.125 0.125 0.75 0.125 0.25 0.75 0.125 0.375 0.75 0.125 0.5 0.75 0.125 0.625 0.75 0.125 0.75 0.75 0.125 0.875 0.75 0.125 1 0.75 0.125 0 0.875 0.125 0.125 0.875 0.125 0.25 0.875 0.125 0.375 0.875 0.125 0.5 0.875 0.125 0.625 0.875 0.125 0.75 0.875 0.125 0.875 0.875 0.125 1 0.875 0.125 0 1 0.125 0.125 1 0.125 0.25 1 0.125 0.375 1 0.125 0.5 1 0.125 0.625 1 0.125 0.75 1 0.125 0.875 1 0.125 1 1 0.125 0 0 0.25 0.125 0 0.25 0.25 0 0.25 0.375 0 0.25 0.5 0 0.25 0.625 0 0.25 0.75 0 0.25 0.875 0 0.25 1 0 0.25 0 0.125 0.25 0.125 0.125 0.25 0.25 0.125 0.25 0.375 0.125 0.25 0.5 0.125 0.25 0.625 0.125 0.25 0.75 0.125 0.25 0.875 0.125 0.25 1 0.125 0.25 0 0.25 0.25 0.125 0.25 0.25 0.25 0.25 0.25 0.375 0.25 0.25 0.5 0.25 0.25 0.625 0.25 0.25 0.75 0.25 0.25 0.875 0.25 0.25 1 0.25 0.25 0 0.375 0.25 0.125 0.375 0.25 0.25 0.375 0.25 0.375 0.375 0.25 0.5 0.375 0.25 0.625 0.375 0.25 0.75 0.375 0.25 0.875 0.375 0.25 1 0.375 0.25 0 0.5 0.25 0.125 0.5 0.25 0.25 0.5 0.25 0.375 0.5 0.25 0.5 0.5 0.25 0.625 0.5 0.25 0.75 0.5 0.25 0.875 0.5 0.25 1 0.5 0.25 0 0.625 0.25 0.125 0.625 0.25 0.25 0.625 0.25 0.375 0.625 0.25 0.5 0.625 0.25 0.625 0.625 0.25 0.75 0.625 0.25 0.875 0.625 0.25 1 0.625 0.25 0 0.75 0.25 0.125 0.75 0.25 0.25 0.75 0.25 0.375 0.75 0.25 0.5 0.75 0.25 0.625 0.75 0.25 0.75 0.75 0.25 0.875 0.75 0.25 1 0.75 0.25 0 0.875 0.25 0.125 0.875 0.25 0.25 0.875 0.25 0.375 0.875 0.25 0.5 0.875 0.25 0.625 0.875 0.25 0.75 0.875 0.25 0.875 0.875 0.25 1 0.875 0.25 0 1 0.25 0.125 1 0.25 0.25 1 0.25 0.375 1 0.25 0.5 1 0.25 0.625 1 0.25 0.75 1 0.25 0.875 1 0.25 1 1 0.25 0 0 0.375 0.125 0 0.375 0.25 0 0.375 0.375 0 0.375 0.5 0 0.375 0.625 0 0.375 0.75 0 0.375 0.875 0 0.375 1 0 0.375 0 0.125 0.375 0.125 0.125 0.375 0.25 0.125 0.375 0.375 0.125 0.375 0.5 0.125 0.375 0.625 0.125 0.375 0.75 0.125 0.375 0.875 0.125 0.375 1 0.125 0.375 0 0.25 0.375 0.125 0.25 0.375 0.25 0.25 0.375 0.375 0.25 0.375 0.5 0.25 0.375 0.625 0.25 0.375 0.75 0.25 0.375 0.875 0.25 0.375 1 0.25 0.375 0 0.375 0.375 0.125 0.375 0.375 0.25 0.375 0.375 0.375 0.375 0.375 0.5 0.375 0.375 0.625 0.375 0.375 0.75 0.375 0.375 0.875 0.375 0.375 1 0.375 0.375 0 0.5 0.375 0.125 0.5 0.375 0.25 0.5 0.375 0.375 0.5 0.375 0.5 0.5 0.375 0.625 0.5 0.375 0.75 0.5 0.375 0.875 0.5 0.375 1 0.5 0.375 0 0.625 0.375 0.125 0.625 0.375 0.25 0.625 0.375 0.375 0.625 0.375 0.5 0.625 0.375 0.625 0.625 0.375 0.75 0.625 0.375 0.875 0.625 0.375 1 0.625 0.375 0 0.75 0.375 0.125 0.75 0.375 0.25 0.75 0.375 0.375 0.75 0.375 0.5 0.75 0.375 0.625 0.75 0.375 0.75 0.75 0.375 0.875 0.75 0.375 1 0.75 0.375 0 0.875 0.375 0.125 0.875 0.375 0.25 0.875 0.375 0.375 0.875 0.375 0.5 0.875 0.375 0.625 0.875 0.375 0.75 0.875 0.375 0.875 0.875 0.375 1 0.875 0.375 0 1 0.375 0.125 1 0.375 0.25 1 0.375 0.375 1 0.375 0.5 1 0.375 0.625 1 0.375 0.75 1 0.375 0.875 1 0.375 1 1 0.375 0 0 0.5 0.125 0 0.5 0.25 0 0.5 0.375 0 0.5 0.5 0 0.5 0.625 0 0.5 0.75 0 0.5 0.875 0 0.5 1 0 0.5 0 0.125 0.5 0.125 0.125 0.5 0.25 0.125 0.5 0.375 0.125 0.5 0.5 0.125 0.5 0.625 0.125 0.5 0.75 0.125 0.5 0.875 0.125 0.5 1 0.125 0.5 0 0.25 0.5 0.125 0.25 0.5 0.25 0.25 0.5 0.375 0.25 0.5 0.5 0.25 0.5 0.625 0.25 0.5 0.75 0.25 0.5 0.875 0.25 0.5 1 0.25 0.5 0 0.375 0.5 0.125 0.375 0.5 0.25 0.375 0.5 0.375 0.375 0.5 0.5 0.375 0.5 0.625 0.375 0.5 0.75 0.375 0.5 0.875 0.375 0.5 1 0.375 0.5 0 0.5 0.5 0.125 0.5 0.5 0.25 0.5 0.5 0.375 0.5 0.5 0.5 0.5 0.5 0.625 0.5 0.5 0.75 0.5 0.5 0.875 0.5 0.5 1 0.5 0.5 0 0.625 0.5 0.125 0.625 0.5 0.25 0.625 0.5 0.375 0.625 0.5 0.5 0.625 0.5 0.625 0.625 0.5 0.75 0.625 0.5 0.875 0.625 0.5 1 0.625 0.5 0 0.75 0.5 0.125 0.75 0.5 0.25 0.75 0.5 0.375 0.75 0.5 0.5 0.75 0.5 0.625 0.75 0.5 0.75 0.75 0.5 0.875 0.75 0.5 1 0.75 0.5 0 0.875 0.5 0.125 0.875 0.5 0.25 0.875 0.5 0.375 0.875 0.5 0.5 0.875 0.5 0.625 0.875 0.5 0.75 0.875 0.5 0.875 0.875 0.5 1 0.875 0.5 0 1 0.5 0.125 1 0.5 0.25 1 0.5 0.375 1 0.5 0.5 1 0.5 0.625 1 0.5 0.75 1 0.5 0.875 1 0.5 1 1 0.5 0 0 0.625 0.125 0 0.625 0.25 0 0.625 0.375 0 0.625 0.5 0 0.625 0.625 0 0.625 0.75 0 0.625 0.875 0 0.625 1 0 0.625 0 0.125 0.625 0.125 0.125 0.625 0.25 0.125 0.625 0.375 0.125 0.625 0.5 0.125 0.625 0.625 0.125 0.625 0.75 0.125 0.625 0.875 0.125 0.625 1 0.125 0.625 0 0.25 0.625 0.125 0.25 0.625 0.25 0.25 0.625 0.375 0.25 0.625 0.5 0.25 0.625 0.625 0.25 0.625 0.75 0.25 0.625 0.875 0.25 0.625 1 0.25 0.625 0 0.375 0.625 0.125 0.375 0.625 0.25 0.375 0.625 0.375 0.375 0.625 0.5 0.375 0.625 0.625 0.375 0.625 0.75 0.375 0.625 0.875 0.375 0.625 1 0.375 0.625 0 0.5 0.625 0.125 0.5 0.625 0.25 0.5 0.625 0.375 0.5 0.625 0.5 0.5 0.625 0.625 0.5 0.625 0.75 0.5 0.625 0.875 0.5 0.625 1 0.5 0.625 0 0.625 0.625 0.125 0.625 0.625 0.25 0.625 0.625 0.375 0.625 0.625 0.5 0.625 0.625 0.625 0.625 0.625 0.75 0.625 0.625 0.875 0.625 0.625 1 0.625 0.625 0 0.75 0.625 0.125 0.75 0.625 0.25 0.75 0.625 0.375 0.75 0.625 0.5 0.75 0.625 0.625 0.75 0.625 0.75 0.75 0.625 0.875 0.75 0.625 1 0.75 0.625 0 0.875 0.625 0.125 0.875 0.625 0.25 0.875 0.625 0.375 0.875 0.625 0.5 0.875 0.625 0.625 0.875 0.625 0.75 0.875 0.625 0.875 0.875 0.625 1 0.875 0.625 0 1 0.625 0.125 1 0.625 0.25 1 0.625 0.375 1 0.625 0.5 1 0.625 0.625 1 0.625 0.75 1 0.625 0.875 1 0.625 1 1 0.625 0 0 0.75 0.125 0 0.75 0.25 0 0.75 0.375 0 0.75 0.5 0 0.75 0.625 0 0.75 0.75 0 0.75 0.875 0 0.75 1 0 0.75 0 0.125 0.75 0.125 0.125 0.75 0.25 0.125 0.75 0.375 0.125 0.75 0.5 0.125 0.75 0.625 0.125 0.75 0.75 0.125 0.75 0.875 0.125 0.75 1 0.125 0.75 0 0.25 0.75 0.125 0.25 0.75 0.25 0.25 0.75 0.375 0.25 0.75 0.5 0.25 0.75 0.625 0.25 0.75 0.75 0.25 0.75 0.875 0.25 0.75 1 0.25 0.75 0 0.375 0.75 0.125 0.375 0.75 0.25 0.375 0.75 0.375 0.375 0.75 0.5 0.375 0.75 0.625 0.375 0.75 0.75 0.375 0.75 0.875 0.375 0.75 1 0.375 0.75 0 0.5 0.75 0.125 0.5 0.75 0.25 0.5 0.75 0.375 0.5 0.75 0.5 0.5 0.75 0.625 0.5 0.75 0.75 0.5 0.75 0.875 0.5 0.75 1 0.5 0.75 0 0.625 0.75 0.125 0.625 0.75 0.25 0.625 0.75 0.375 0.625 0.75 0.5 0.625 0.75 0.625 0.625 0.75 0.75 0.625 0.75 0.875 0.625 0.75 1 0.625 0.75 0 0.75 0.75 0.125 0.75 0.75 0.25 0.75 0.75 0.375 0.75 0.75 0.5 0.75 0.75 0.625 0.75 0.75 0.75 0.75 0.75 0.875 0.75 0.75 1 0.75 0.75 0 0.875 0.75 0.125 0.875 0.75 0.25 0.875 0.75 0.375 0.875 0.75 0.5 0.875 0.75 0.625 0.875 0.75 0.75 0.875 0.75 0.875 0.875 0.75 1 0.875 0.75 0 1 0.75 0.125 1 0.75 0.25 1 0.75 0.375 1 0.75 0.5 1 0.75 0.625 1 0.75 0.75 1 0.75 0.875 1 0.75 1 1 0.75 0 0 0.875 0.125 0 0.875 0.25 0 0.875 0.375 0 0.875 0.5 0 0.875 0.625 0 0.875 0.75 0 0.875 0.875 0 0.875 1 0 0.875 0 0.125 0.875 0.125 0.125 0.875 0.25 0.125 0.875 0.375 0.125 0.875 0.5 0.125 0.875 0.625 0.125 0.875 0.75 0.125 0.875 0.875 0.125 0.875 1 0.125 0.875 0 0.25 0.875 0.125 0.25 0.875 0.25 0.25 0.875 0.375 0.25 0.875 0.5 0.25 0.875 0.625 0.25 0.875 0.75 0.25 0.875 0.875 0.25 0.875 1 0.25 0.875 0 0.375 0.875 0.125 0.375 0.875 0.25 0.375 0.875 0.375 0.375 0.875 0.5 0.375 0.875 0.625 0.375 0.875 0.75 0.375 0.875 0.875 0.375 0.875 1 0.375 0.875 0 0.5 0.875 0.125 0.5 0.875 0.25 0.5 0.875 0.375 0.5 0.875 0.5 0.5 0.875 0.625 0.5 0.875 0.75 0.5 0.875 0.875 0.5 0.875 1 0.5 0.875 0 0.625 0.875 0.125 0.625 0.875 0.25 0.625 0.875 0.375 0.625 0.875 0.5 0.625 0.875 0.625 0.625 0.875 0.75 0.625 0.875 0.875 0.625 0.875 1 0.625 0.875 0 0.75 0.875 0.125 0.75 0.875 0.25 0.75 0.875 0.375 0.75 0.875 0.5 0.75 0.875 0.625 0.75 0.875 0.75 0.75 0.875 0.875 0.75 0.875 1 0.75 0.875 0 0.875 0.875 0.125 0.875 0.875 0.25 0.875 0.875 0.375 0.875 0.875 0.5 0.875 0.875 0.625 0.875 0.875 0.75 0.875 0.875 0.875 0.875 0.875 1 0.875 0.875 0 1 0.875 0.125 1 0.875 0.25 1 0.875 0.375 1 0.875 0.5 1 0.875 0.625 1 0.875 0.75 1 0.875 0.875 1 0.875 1 1 0.875 0 0 1 0.125 0 1 0.25 0 1 0.375 0 1 0.5 0 1 0.625 0 1 0.75 0 1 0.875 0 1 1 0 1 0 0.125 1 0.125 0.125 1 0.25 0.125 1 0.375 0.125 1 0.5 0.125 1 0.625 0.125 1 0.75 0.125 1 0.875 0.125 1 1 0.125 1 0 0.25 1 0.125 0.25 1 0.25 0.25 1 0.375 0.25 1 0.5 0.25 1 0.625 0.25 1 0.75 0.25 1 0.875 0.25 1 1 0.25 1 0 0.375 1 0.125 0.375 1 0.25 0.375 1 0.375 0.375 1 0.5 0.375 1 0.625 0.375 1 0.75 0.375 1 0.875 0.375 1 1 0.375 1 0 0.5 1 0.125 0.5 1 0.25 0.5 1 0.375 0.5 1 0.5 0.5 1 0.625 0.5 1 0.75 0.5 1 0.875 0.5 1 1 0.5 1 0 0.625 1 0.125 0.625 1 0.25 0.625 1 0.375 0.625 1 0.5 0.625 1 0.625 0.625 1 0.75 0.625 1 0.875 0.625 1 1 0.625 1 0 0.75 1 0.125 0.75 1 0.25 0.75 1 0.375 0.75 1 0.5 0.75 1 0.625 0.75 1 0.75 0.75 1 0.875 0.75 1 1 0.75 1 0 0.875 1 0.125 0.875 1 0.25 0.875 1 0.375 0.875 1 0.5 0.875 1 0.625 0.875 1 0.75 0.875 1 0.875 0.875 1 1 0.875 1 0 1 1 0.125 1 1 0.25 1 1 0.375 1 1 0.5 1 1 0.625 1 1 0.75 1 1 0.875 1 1 1 1 1         </DataArray>
      </Points>
    </Piece>
  </StructuredGrid>
</VTKFile>
