<?xml version="1.0"?>
<VTKFile type="StructuredGrid" version="0.1" byte_order="LittleEndian">
  <StructuredGrid WholeExtent="0 8 0 8 0 8">
    <Piece Extent="0 8 0 8 0 8">
      <PointData>
      </PointData>
      <CellData>
        <DataArray Name="vx" NumberOfComponents="1" type="Float32" format="ascii">
0.9891340129490263644 0.9891340129490263644 0.9891340129490263644 0.9891340129490263644 0.9891340129490263644 0.9891340129490263644 0.9891340129490263644 0.9891340129490263644 0.96770633995712052045 0.96770633995712052045 0.96770633995712052045 0.96770633995712052045 0.96770633995712052045 0.96770633995712052045 0.96770633995712052045 0.96770633995712052045 0.94752276259787993062 0.94752276259787993062 0.94752276259787993062 0.94752276259787993062 0.94752276259787993062 0.94752276259787993062 0.94752276259787993062 0.94752276259787993062 0.92935919888077112017 0.92935919888077112017 0.92935919888077112017 0.92935919888077112017 0.92935919888077112017 0.92935919888077112017 0.92935919888077112017 0.92935919888077112017 0.91390994231187938635 0.91390994231187938635 0.91390994231187938635 0.91390994231187938635 0.91390994231187938635 0.91390994231187938635 0.91390994231187938635 0.91390994231187938635 0.90177178560578108435 0.90177178560578108435 0.90177178560578108435 0.90177178560578108435 0.90177178560578108435 0.90177178560578108435 0.90177178560578108435 0.90177178560578108435 0.89341084871221088104 0.89341084871221088104 0.89341084871221088104 0.89341084871221088104 0.89341084871221088104 0.89341084871221088104 0.89341084871221088104 0.89341084871221088104 0.88914837505640931248 0.88914837505640931248 0.88914837505640931248 0.88914837505640931248 0.88914837505640931248 0.88914837505640931248 0.88914837505640931248 0.88914837505640931248 0.9891340129490263644 0.9891340129490263644 0.9891340129490263644 0.9891340129490263644 0.9891340129490263644 0.9891340129490263644 0.9891340129490263644 0.9891340129490263644 0.96770633995712052045 0.96770633995712052045 0.96770633995712052045 0.96770633995712052045 0.96770633995712052045 0.96770633995712052045 0.96770633995712052045 0.96770633995712052045 0.94752276259787993062 0.94752276259787993062 0.94752276259787993062 0.94752276259787993062 0.94752276259787993062 0.94752276259787993062 0.94752276259787993062 0.94752276259787993062 0.92935919888077112017 0.92935919888077112017 0.92935919888077112017 0.92935919888077112017 0.92935919888077112017 0.92935919888077112017 0.92935919888077112017 0.92935919888077112017 0.91390994231187938635 0.91390994231187938635 0.91390994231187938635 0.91390994231187938635 0.91390994231187938635 0.91390994231187938635 0.91390994231187938635 0.91390994231187938635 0.90177178560578108435 0.90177178560578108435 0.90177178560578108435 0.90177178560578108435 0.90177178560578108435 0.90177178560578108435 0.90177178560578108435 0.90177178560578108435 0.89341084871221088104 0.89341084871221088104 0.89341084871221088104 0.89341084871221088104 0.89341084871221088104 0.89341084871221088104 0.89341084871221088104 0.89341084871221088104 0.88914837505640931248 0.88914837505640931248 0.88914837505640931248 0.88914837505640931248 0.88914837505640931248 0.88914837505640931248 0.88914837505640931248 0.88914837505640931248 0.9891340129490263644 0.9891340129490263644 0.9891340129490263644 0.9891340129490263644 0.9891340129490263644 0.9891340129490263644 0.9891340129490263644 0.9891340129490263644 0.96770633995712052045 0.96770633995712052045 0.96770633995712052045 0.96770633995712052045 0.96770633995712052045 0.96770633995712052045 0.96770633995712052045 0.96770633995712052045 0.94752276259787993062 0.94752276259787993062 0.94752276259787993062 0.94752276259787993062 0.94752276259787993062 0.94752276259787993062 0.94752276259787993062 0.94752276259787993062 0.92935919888077112017 0.92935919888077112017 0.92935919888077112017 0.92935919888077112017 0.92935919888077112017 0.92935919888077112017 0.92935919888077112017 0.92935919888077112017 0.91390994231187938635 0.91390994231187938635 0.91390994231187938635 0.91390994231187938635 0.91390994231187938635 0.91390994231187938635 0.91390994231187938635 0.91390994231187938635 0.90177178560578108435 0.90177178560578108435 0.90177178560578108435 0.90177178560578108435 0.90177178560578108435 0.90177178560578108435 0.90177178560578108435 0.90177178560578108435 0.89341084871221088104 0.89341084871221088104 0.89341084871221088104 0.89341084871221088104 0.89341084871221088104 0.89341084871221088104 0.89341084871221088104 0.89341084871221088104 0.88914837505640931248 0.88914837505640931248 0.88914837505640931248 0.88914837505640931248 0.88914837505640931248 0.88914837505640931248 0.88914837505640931248 0.88914837505640931248 0.9891340129490263644 0.9891340129490263644 0.9891340129490263644 0.9891340129490263644 0.9891340129490263644 0.9891340129490263644 0.9891340129490263644 0.9891340129490263644 0.96770633995712052045 0.96770633995712052045 0.96770633995712052045 0.96770633995712052045 0.96770633995712052045 0.96770633995712052045 0.96770633995712052045 0.96770633995712052045 0.94752276259787993062 0.94752276259787993062 0.94752276259787993062 0.94752276259787993062 0.94752276259787993062 0.94752276259787993062 0.94752276259787993062 0.94752276259787993062 0.92935919888077112017 0.92935919888077112017 0.92935919888077112017 0.92935919888077112017 0.92935919888077112017 0.92935919888077112017 0.92935919888077112017 0.92935919888077112017 0.91390994231187938635 0.91390994231187938635 0.91390994231187938635 0.91390994231187938635 0.91390994231187938635 0.91390994231187938635 0.91390994231187938635 0.91390994231187938635 0.90177178560578108435 0.90177178560578108435 0.90177178560578108435 0.90177178560578108435 0.90177178560578108435 0.90177178560578108435 0.90177178560578108435 0.90177178560578108435 0.89341084871221088104 0.89341084871221088104 0.89341084871221088104 0.89341084871221088104 0.89341084871221088104 0.89341084871221088104 0.89341084871221088104 0.89341084871221088104 0.88914837505640931248 0.88914837505640931248 0.88914837505640931248 0.88914837505640931248 0.88914837505640931248 0.88914837505640931248 0.88914837505640931248 0.88914837505640931248 0.9891340129490263644 0.9891340129490263644 0.9891340129490263644 0.9891340129490263644 0.9891340129490263644 0.9891340129490263644 0.9891340129490263644 0.9891340129490263644 0.96770633995712052045 0.96770633995712052045 0.96770633995712052045 0.96770633995712052045 0.96770633995712052045 0.96770633995712052045 0.96770633995712052045 0.96770633995712052045 0.94752276259787993062 0.94752276259787993062 0.94752276259787993062 0.94752276259787993062 0.94752276259787993062 0.94752276259787993062 0.94752276259787993062 0.94752276259787993062 0.92935919888077112017 0.92935919888077112017 0.92935919888077112017 0.92935919888077112017 0.92935919888077112017 0.92935919888077112017 0.92935919888077112017 0.92935919888077112017 0.91390994231187938635 0.91390994231187938635 0.91390994231187938635 0.91390994231187938635 0.91390994231187938635 0.91390994231187938635 0.91390994231187938635 0.91390994231187938635 0.90177178560578108435 0.90177178560578108435 0.90177178560578108435 0.90177178560578108435 0.90177178560578108435 0.90177178560578108435 0.90177178560578108435 0.90177178560578108435 0.89341084871221088104 0.89341084871221088104 0.89341084871221088104 0.89341084871221088104 0.89341084871221088104 0.89341084871221088104 0.89341084871221088104 0.89341084871221088104 0.88914837505640931248 0.88914837505640931248 0.88914837505640931248 0.88914837505640931248 0.88914837505640931248 0.88914837505640931248 0.88914837505640931248 0.88914837505640931248 0.9891340129490263644 0.9891340129490263644 0.9891340129490263644 0.9891340129490263644 0.9891340129490263644 0.9891340129490263644 0.9891340129490263644 0.9891340129490263644 0.96770633995712052045 0.96770633995712052045 0.96770633995712052045 0.96770633995712052045 0.96770633995712052045 0.96770633995712052045 0.96770633995712052045 0.96770633995712052045 0.94752276259787993062 0.94752276259787993062 0.94752276259787993062 0.94752276259787993062 0.94752276259787993062 0.94752276259787993062 0.94752276259787993062 0.94752276259787993062 0.92935919888077112017 0.92935919888077112017 0.92935919888077112017 0.92935919888077112017 0.92935919888077112017 0.92935919888077112017 0.92935919888077112017 0.92935919888077112017 0.91390994231187938635 0.91390994231187938635 0.91390994231187938635 0.91390994231187938635 0.91390994231187938635 0.91390994231187938635 0.91390994231187938635 0.91390994231187938635 0.90177178560578108435 0.90177178560578108435 0.90177178560578108435 0.90177178560578108435 0.90177178560578108435 0.90177178560578108435 0.90177178560578108435 0.90177178560578108435 0.89341084871221088104 0.89341084871221088104 0.89341084871221088104 0.89341084871221088104 0.89341084871221088104 0.89341084871221088104 0.89341084871221088104 0.89341084871221088104 0.88914837505640931248 0.88914837505640931248 0.88914837505640931248 0.88914837505640931248 0.88914837505640931248 0.88914837505640931248 0.88914837505640931248 0.88914837505640931248 0.9891340129490263644 0.9891340129490263644 0.9891340129490263644 0.9891340129490263644 0.9891340129490263644 0.9891340129490263644 0.9891340129490263644 0.9891340129490263644 0.96770633995712052045 0.96770633995712052045 0.96770633995712052045 0.96770633995712052045 0.96770633995712052045 0.96770633995712052045 0.96770633995712052045 0.96770633995712052045 0.94752276259787993062 0.94752276259787993062 0.94752276259787993062 0.94752276259787993062 0.94752276259787993062 0.94752276259787993062 0.94752276259787993062 0.94752276259787993062 0.92935919888077112017 0.92935919888077112017 0.92935919888077112017 0.92935919888077112017 0.92935919888077112017 0.92935919888077112017 0.92935919888077112017 0.92935919888077112017 0.91390994231187938635 0.91390994231187938635 0.91390994231187938635 0.91390994231187938635 0.91390994231187938635 0.91390994231187938635 0.91390994231187938635 0.91390994231187938635 0.90177178560578108435 0.90177178560578108435 0.90177178560578108435 0.90177178560578108435 0.90177178560578108435 0.90177178560578108435 0.90177178560578108435 0.90177178560578108435 0.89341084871221088104 0.89341084871221088104 0.89341084871221088104 0.89341084871221088104 0.89341084871221088104 0.89341084871221088104 0.89341084871221088104 0.89341084871221088104 0.88914837505640931248 0.88914837505640931248 0.88914837505640931248 0.88914837505640931248 0.88914837505640931248 0.88914837505640931248 0.88914837505640931248 0.88914837505640931248 0.9891340129490263644 0.9891340129490263644 0.9891340129490263644 0.9891340129490263644 0.9891340129490263644 0.9891340129490263644 0.9891340129490263644 0.9891340129490263644 0.96770633995712052045 0.96770633995712052045 0.96770633995712052045 0.96770633995712052045 0.96770633995712052045 0.96770633995712052045 0.96770633995712052045 0.96770633995712052045 0.94752276259787993062 0.94752276259787993062 0.94752276259787993062 0.94752276259787993062 0.94752276259787993062 0.94752276259787993062 0.94752276259787993062 0.94752276259787993062 0.92935919888077112017 0.92935919888077112017 0.92935919888077112017 0.92935919888077112017 0.92935919888077112017 0.92935919888077112017 0.92935919888077112017 0.92935919888077112017 0.91390994231187938635 0.91390994231187938635 0.91390994231187938635 0.91390994231187938635 0.91390994231187938635 0.91390994231187938635 0.91390994231187938635 0.91390994231187938635 0.90177178560578108435 0.90177178560578108435 0.90177178560578108435 0.90177178560578108435 0.90177178560578108435 0.90177178560578108435 0.90177178560578108435 0.90177178560578108435 0.89341084871221088104 0.89341084871221088104 0.89341084871221088104 0.89341084871221088104 0.89341084871221088104 0.89341084871221088104 0.89341084871221088104 0.89341084871221088104 0.88914837505640931248 0.88914837505640931248 0.88914837505640931248 0.88914837505640931248 0.88914837505640931248 0.88914837505640931248 0.88914837505640931248 0.88914837505640931248 
        </DataArray>
      </CellData>
      <Points>
        <DataArray Name="m" NumberOfComponents="3" type="Float32" format="ascii">
0 0 0 0.125 0 0 0.25 0 0 0.375 0 0 0.5 0 0 0.625 0 0 0.75 0 0 0.875 0 0 1 0 0 0 0.125 0 0.125 0.125 0 0.25 0.125 0 0.375 0.125 0 0.5 0.125 0 0.625 0.125 0 0.75 0.125 0 0.875 0.125 0 1 0.125 0 0 0.25 0 0.125 0.25 0 0.25 0.25 0 0.375 0.25 0 0.5 0.25 0 0.625 0.25 0 0.75 0.25 0 0.875 0.25 0 1 0.25 0 0 0.375 0 0.125 0.375 0 0.25 0.375 0 0.375 0.375 0 0.5 0.375 0 0.625 0.375 0 0.75 0.375 0 0.875 0.375 0 1 0.375 0 0 0.5 0 0.125 0.5 0 0.25 0.5 0 0.375 0.5 0 0.5 0.5 0 0.625 0.5 0 0.75 0.5 0 0.875 0.5 0 1 0.5 0 0 0.625 0 0.125 0.625 0 0.25 0.625 0 0.375 0.625 0 0.5 0.625 0 0.625 0.625 0 0.75 0.625 0 0.875 0.625 0 1 0.625 0 0 0.75 0 0.125 0.75 0 0.25 0.75 0 0.375 0.75 0 0.5 0.75 0 0.625 0.75 0 0.75 0.75 0 0.875 0.75 0 1 0.75 0 0 0.875 0 0.125 0.875 0 0.25 0.875 0 0.375 0.875 0 0.5 0.875 0 0.625 0.875 0 0.75 0.875 0 0.875 0.875 0 1 0.875 0 0 1 0 0.125 1 0 0.25 1 0 0.375 1 0 0.5 1 0 0.625 1 0 0.75 1 0 0.875 1 0 1 1 0 0 0 0.125 0.125 0 0.125 0.25 0 0.125 0.375 0 0.125 0.5 0 0.125 0.625 0 0.125 0.75 0 0.125 0.875 0 0.125 1 0 0.125 0 0.125 0.125 0.125 0.125 0.125 0.25 0.125 0.125 0.375 0.125 0.125 0.5 0.125 0.125 0.625 0.125 0.125 0.75 0.125 0.125 0.875 0.125 0.125 1 0.125 0.125 0 0.25 0.125 0.125 0.25 0.125 0.25 0.25 0.125 0.375 0.25 0.125 0.5 0.25 0.125 0.625 0.25 0.125 0.75 0.25 0.125 0.875 0.25 0.125 1 0.25 0.125 0 0.375 0.125 0.125 0.375 0.125 0.25 0.375 0.125 0.375 0.375 0.125 0.5 0.375 0.125 0.625 0.375 0.125 0.75 0.375 0.125 0.875 0.375 0.125 1 0.375 0.125 0 0.5 0.125 0.125 0.5 0.125 0.25 0.5 0.125 0.375 0.5 0.125 0.5 0.5 0.125 0.625 0.5 0.125 0.75 0.5 0.125 0.875 0.5 0.125 1 0.5 0.125 0 0.625 0.125 0.125 0.625 0.125 0.25 0.625 0.125 0.375 0.625 0.125 0.5 0.625 0.125 0.625 0.625 0.125 0.75 0.625 0.125 0.875 0.625 0.125 1 0.625 0.125 0 0.75 0.125 0.125 0.75 0.125 0.25 0.75 0.125 0.375 0.75 0.125 0.5 0.75 0.125 0.625 0.75 0.125 0.75 0.75 0.125 0.875 0.75 0.125 1 0.75 0.125 0 0.875 0.125 0.125 0.875 0.125 0.25 0.875 0.125 0.375 0.875 0.125 0.5 0.875 0.125 0.625 0.875 0.125 0.75 0.875 0.125 0.875 0.875 0.125 1 0.875 0.125 0 1 0.125 0.125 1 0.125 0.25 1 0.125 0.375 1 0.125 0.5 1 0.125 0.625 1 0.125 0.75 1 0.125 0.875 1 0.125 1 1 0.125 0 0 0.25 0.125 0 0.25 0.25 0 0.25 0.375 0 0.25 0.5 0 0.25 0.625 0 0.25 0.75 0 0.25 0.875 0 0.25 1 0 0.25 0 0.125 0.25 0.125 0.125 0.25 0.25 0.125 0.25 0.375 0.125 0.25 0.5 0.125 0.25 0.625 0.125 0.25 0.75 0.125 0.25 0.875 0.125 0.25 1 0.125 0.25 0 0.25 0.25 0.125 0.25 0.25 0.25 0.25 0.25 0.375 0.25 0.25 0.5 0.25 0.25 0.625 0.25 0.25 0.75 0.25 0.25 0.875 0.25 0.25 1 0.25 0.25 0 0.375 0.25 0.125 0.375 0.25 0.25 0.375 0.25 0.375 0.375 0.25 0.5 0.375 0.25 0.625 0.375 0.25 0.75 0.375 0.25 0.875 0.375 0.25 1 0.375 0.25 0 0.5 0.25 0.125 0.5 0.25 0.25 0.5 0.25 0.375 0.5 0.25 0.5 0.5 0.25 0.625 0.5 0.25 0.75 0.5 0.25 0.875 0.5 0.25 1 0.5 0.25 0 0.625 0.25 0.125 0.625 0.25 0.25 0.625 0.25 0.375 0.625 0.25 0.5 0.625 0.25 0.625 0.625 0.25 0.75 0.625 0.25 0.875 0.625 0.25 1 0.625 0.25 0 0.75 0.25 0.125 0.75 0.25 0.25 0.75 0.25 0.375 0.75 0.25 0.5 0.75 0.25 0.625 0.75 0.25 0.75 0.75 0.25 0.875 0.75 0.25 1 0.75 0.25 0 0.875 0.25 0.125 0.875 0.25 0.25 0.875 0.25 0.375 0.875 0.25 0.5 0.875 0.25 0.625 0.875 0.25 0.75 0.875 0.25 0.875 0.875 0.25 1 0.875 0.25 0 1 0.25 0.125 1 0.25 0.25 1 0.25 0.375 1 0.25 0.5 1 0.25 0.625 1 0.25 0.75 1 0.25 0.875 1 0.25 1 1 0.25 0 0 0.375 0.125 0 0.375 0.25 0 0.375 0.375 0 0.375 0.5 0 0.375 0.625 0 0.375 0.75 0 0.375 0.875 0 0.375 1 0 0.375 0 0.125 0.375 0.125 0.125 0.375 0.25 0.125 0.375 0.375 0.125 0.375 0.5 0.125 0.375 0.625 0.125 0.375 0.75 0.125 0.375 0.875 0.125 0.375 1 0.125 0.375 0 0.25 0.375 0.125 0.25 0.375 0.25 0.25 0.375 0.375 0.25 0.375 0.5 0.25 0.375 0.625 0.25 0.375 0.75 0.25 0.375 0.875 0.25 0.375 1 0.25 0.375 0 0.375 0.375 0.125 0.375 0.375 0.25 0.375 0.375 0.375 0.375 0.375 0.5 0.375 0.375 0.625 0.375 0.375 0.75 0.375 0.375 0.875 0.375 0.375 1 0.375 0.375 0 0.5 0.375 0.125 0.5 0.375 0.25 0.5 0.375 0.375 0.5 0.375 0.5 0.5 0.375 0.625 0.5 0.375 0.75 0.5 0.375 0.875 0.5 0.375 1 0.5 0.375 0 0.625 0.375 0.125 0.625 0.375 0.25 0.625 0.375 0.375 0.625 0.375 0.5 0.625 0.375 0.625 0.625 0.375 0.75 0.625 0.375 0.875 0.625 0.375 1 0.625 0.375 0 0.75 0.375 0.125 0.75 0.375 0.25 0.75 0.375 0.375 0.75 0.375 0.5 0.75 0.375 0.625 0.75 0.375 0.75 0.75 0.375 0.875 0.75 0.375 1 0.75 0.375 0 0.875 0.375 0.125 0.875 0.375 0.25 0.875 0.375 0.375 0.875 0.375 0.5 0.875 0.375 0.625 0.875 0.375 0.75 0.875 0.375 0.875 0.875 0.375 1 0.875 0.375 0 1 0.375 0.125 1 0.375 0.25 1 0.375 0.375 1 0.375 0.5 1 0.375 0.625 1 0.375 0.75 1 0.375 0.875 1 0.375 1 1 0.375 0 0 0.5 0.125 0 0.5 0.25 0 0.5 0.375 0 0.5 0.5 0 0.5 0.625 0 0.5 0.75 0 0.5 0.875 0 0.5 1 0 0.5 0 0.125 0.5 0.125 0.125 0.5 0.25 0.125 0.5 0.375 0.125 0.5 0.5 0.125 0.5 0.625 0.125 0.5 0.75 0.125 0.5 0.875 0.125 0.5 1 0.125 0.5 0 0.25 0.5 0.125 0.25 0.5 0.25 0.25 0.5 0.375 0.25 0.5 0.5 0.25 0.5 0.625 0.25 0.5 0.75 0.25 0.5 0.875 0.25 0.5 1 0.25 0.5 0 0.375 0.5 0.125 0.375 0.5 0.25 0.375 0.5 0.375 0.375 0.5 0.5 0.375 0.5 0.625 0.375 0.5 0.75 0.375 0.5 0.875 0.375 0.5 1 0.375 0.5 0 0.5 0.5 0.125 0.5 0.5 0.25 0.5 0.5 0.375 0.5 0.5 0.5 0.5 0.5 0.625 0.5 0.5 0.75 0.5 0.5 0.875 0.5 0.5 1 0.5 0.5 0 0.625 0.5 0.125 0.625 0.5 0.25 0.625 0.5 0.375 0.625 0.5 0.5 0.625 0.5 0.625 0.625 0.5 0.75 0.625 0.5 0.875 0.625 0.5 1 0.625 0.5 0 0.75 0.5 0.125 0.75 0.5 0.25 0.75 0.5 0.375 0.75 0.5 0.5 0.75 0.5 0.625 0.75 0.5 0.75 0.75 0.5 0.875 0.75 0.5 1 0.75 0.5 0 0.875 0.5 0.125 0.875 0.5 0.25 0.875 0.5 0.375 0.875 0.5 0.5 0.875 0.5 0.625 0.875 0.5 0.75 0.875 0.5 0.875 0.875 0.5 1 0.875 0.5 0 1 0.5 0.125 1 0.5 0.25 1 0.5 0.375 1 0.5 0.5 1 0.5 0.625 1 0.5 0.75 1 0.5 0.875 1 0.5 1 1 0.5 0 0 0.625 0.125 0 0.625 0.25 0 0.625 0.375 0 0.625 0.5 0 0.625 0.625 0 0.625 0.75 0 0.625 0.875 0 0.625 1 0 0.625 0 0.125 0.625 0.125 0.125 0.625 0.25 0.125 0.625 0.375 0.125 0.625 0.5 0.125 0.625 0.625 0.125 0.625 0.75 0.125 0.625 0.875 0.125 0.625 1 0.125 0.625 0 0.25 0.625 0.125 0.25 0.625 0.25 0.25 0.625 0.375 0.25 0.625 0.5 0.25 0.625 0.625 0.25 0.625 0.75 0.25 0.625 0.875 0.25 0.625 1 0.25 0.625 0 0.375 0.625 0.125 0.375 0.625 0.25 0.375 0.625 0.375 0.375 0.625 0.5 0.375 0.625 0.625 0.375 0.625 0.75 0.375 0.625 0.875 0.375 0.625 1 0.375 0.625 0 0.5 0.625 0.125 0.5 0.625 0.25 0.5 0.625 0.375 0.5 0.625 0.5 0.5 0.625 0.625 0.5 0.625 0.75 0.5 0.625 0.875 0.5 0.625 1 0.5 0.625 0 0.625 0.625 0.125 0.625 0.625 0.25 0.625 0.625 0.375 0.625 0.625 0.5 0.625 0.625 0.625 0.625 0.625 0.75 0.625 0.625 0.875 0.625 0.625 1 0.625 0.625 0 0.75 0.625 0.125 0.75 0.625 0.25 0.75 0.625 0.375 0.75 0.625 0.5 0.75 0.625 0.625 0.75 0.625 0.75 0.75 0.625 0.875 0.75 0.625 1 0.75 0.625 0 0.875 0.625 0.125 0.875 0.625 0.25 0.875 0.625 0.375 0.875 0.625 0.5 0.875 0.625 0.625 0.875 0.625 0.75 0.875 0.625 0.875 0.875 0.625 1 0.875 0.625 0 1 0.625 0.125 1 0.625 0.25 1 0.625 0.375 1 0.625 0.5 1 0.625 0.625 1 0.625 0.75 1 0.625 0.875 1 0.625 1 1 0.625 0 0 0.75 0.125 0 0.75 0.25 0 0.75 0.375 0 0.75 0.5 0 0.75 0.625 0 0.75 0.75 0 0.75 0.875 0 0.75 1 0 0.75 0 0.125 0.75 0.125 0.125 0.75 0.25 0.125 0.75 0.375 0.125 0.75 0.5 0.125 0.75 0.625 0.125 0.75 0.75 0.125 0.75 0.875 0.125 0.75 1 0.125 0.75 0 0.25 0.75 0.125 0.25 0.75 0.25 0.25 0.75 0.375 0.25 0.75 0.5 0.25 0.75 0.625 0.25 0.75 0.75 0.25 0.75 0.875 0.25 0.75 1 0.25 0.75 0 0.375 0.75 0.125 0.375 0.75 0.25 0.375 0.75 0.375 0.375 0.75 0.5 0.375 0.75 0.625 0.375 0.75 0.75 0.375 0.75 0.875 0.375 0.75 1 0.375 0.75 0 0.5 0.75 0.125 0.5 0.75 0.25 0.5 0.75 0.375 0.5 0.75 0.5 0.5 0.75 0.625 0.5 0.75 0.75 0.5 0.75 0.875 0.5 0.75 1 0.5 0.75 0 0.625 0.75 0.125 0.625 0.75 0.25 0.625 0.75 0.375 0.625 0.75 0.5 0.625 0.75 0.625 0.625 0.75 0.75 0.625 0.75 0.875 0.625 0.75 1 0.625 0.75 0 0.75 0.75 0.125 0.75 0.75 0.25 0.75 0.75 0.375 0.75 0.75 0.5 0.75 0.75 0.625 0.75 0.75 0.75 0.75 0.75 0.875 0.75 0.75 1 0.75 0.75 0 0.875 0.75 0.125 0.875 0.75 0.25 0.875 0.75 0.375 0.875 0.75 0.5 0.875 0.75 0.625 0.875 0.75 0.75 0.875 0.75 0.875 0.875 0.75 1 0.875 0.75 0 1 0.75 0.125 1 0.75 0.25 1 0.75 0.375 1 0.75 0.5 1 0.75 0.625 1 0.75 0.75 1 0.75 0.875 1 0.75 1 1 0.75 0 0 0.875 0.125 0 0.875 0.25 0 0.875 0.375 0 0.875 0.5 0 0.875 0.625 0 0.875 0.75 0 0.875 0.875 0 0.875 1 0 0.875 0 0.125 0.875 0.125 0.125 0.875 0.25 0.125 0.875 0.375 0.125 0.875 0.5 0.125 0.875 0.625 0.125 0.875 0.75 0.125 0.875 0.875 0.125 0.875 1 0.125 0.875 0 0.25 0.875 0.125 0.25 0.875 0.25 0.25 0.875 0.375 0.25 0.875 0.5 0.25 0.875 0.625 0.25 0.875 0.75 0.25 0.875 0.875 0.25 0.875 1 0.25 0.875 0 0.375 0.875 0.125 0.375 0.875 0.25 0.375 0.875 0.375 0.375 0.875 0.5 0.375 0.875 0.625 0.375 0.875 0.75 0.375 0.875 0.875 0.375 0.875 1 0.375 0.875 0 0.5 0.875 0.125 0.5 0.875 0.25 0.5 0.875 0.375 0.5 0.875 0.5 0.5 0.875 0.625 0.5 0.875 0.75 0.5 0.875 0.875 0.5 0.875 1 0.5 0.875 0 0.625 0.875 0.125 0.625 0.875 0.25 0.625 0.875 0.375 0.625 0.875 0.5 0.625 0.875 0.625 0.625 0.875 0.75 0.625 0.875 0.875 0.625 0.875 1 0.625 0.875 0 0.75 0.875 0.125 0.75 0.875 0.25 0.75 0.875 0.375 0.75 0.875 0.5 0.75 0.875 0.625 0.75 0.875 0.75 0.75 0.875 0.875 0.75 0.875 1 0.75 0.875 0 0.875 0.875 0.125 0.875 0.875 0.25 0.875 0.875 0.375 0.875 0.875 0.5 0.875 0.875 0.625 0.875 0.875 0.75 0.875 0.875 0.875 0.875 0.875 1 0.875 0.875 0 1 0.875 0.125 1 0.875 0.25 1 0.875 0.375 1 0.875 0.5 1 0.875 0.625 1 0.875 0.75 1 0.875 0.875 1 0.875 1 1 0.875 0 0 1 0.125 0 1 0.25 0 1 0.375 0 1 0.5 0 1 0.625 0 1 0.75 0 1 0.875 0 1 1 0 1 0 0.125 1 0.125 0.125 1 0.25 0.125 1 0.375 0.125 1 0.5 0.125 1 0.625 0.125 1 0.75 0.125 1 0.875 0.125 1 1 0.125 1 0 0.25 1 0.125 0.25 1 0.25 0.25 1 0.375 0.25 1 0.5 0.25 1 0.625 0.25 1 0.75 0.25 1 0.875 0.25 1 1 0.25 1 0 0.375 1 0.125 0.375 1 0.25 0.375 1 0.375 0.375 1 0.5 0.375 1 0.625 0.375 1 0.75 0.375 1 0.875 0.375 1 1 0.375 1 0 0.5 1 0.125 0.5 1 0.25 0.5 1 0.375 0.5 1 0.5 0.5 1 0.625 0.5 1 0.75 0.5 1 0.875 0.5 1 1 0.5 1 0 0.625 1 0.125 0.625 1 0.25 0.625 1 0.375 0.625 1 0.5 0.625 1 0.625 0.625 1 0.75 0.625 1 0.875 0.625 1 1 0.625 1 0 0.75 1 0.125 0.75 1 0.25 0.75 1 0.375 0.75 1 0.5 0.75 1 0.625 0.75 1 0.75 0.75 1 0.875 0.75 1 1 0.75 1 0 0.875 1 0.125 0.875 1 0.25 0.875 1 0.375 0.875 1 0.5 0.875 1 0.625 0.875 1 0.75 0.875 1 0.875 0.875 1 1 0.875 1 0 1 1 0.125 1 1 0.25 1 1 0.375 1 1 0.5 1 1 0.625 1 1 0.75 1 1 0.875 1 1 1 1 1         </DataArray>
      </Points>
    </Piece>
  </StructuredGrid>
</VTKFile>
