# vtk DataFile Version 2.0
Reconstructed linear interface
ASCII
DATASET POLYDATA
POINTS 4576 float
0.625 0.288323 0
0.621414 0.289062 0
0.621414 0.289062 -0.0078125
0.625 0.288323 -0.0078125
0.632812 0.28772 -0.0078125
0.632812 0.28772 0
0.625 0.288437 0
0.625 0.288437 -0.0078125
0.604334 0.296875 -0.0078125
0.609375 0.291382 -0.0078125
0.609375 0.291382 0
0.604334 0.296875 0
0.609375 0.293604 0
0.617081 0.289062 0
0.617081 0.289062 -0.0078125
0.609375 0.293604 -0.0078125
0.617188 0.28934 0
0.618532 0.289062 0
0.618532 0.289062 -0.0078125
0.617188 0.28934 -0.0078125
0.604958 0.304688 -0.0078125
0.604958 0.304688 0
0.604209 0.296875 0
0.604209 0.296875 -0.0078125
0.605785 0.304688 0
0.609375 0.308364 0
0.609375 0.308364 -0.0078125
0.605785 0.304688 -0.0078125
0.609375 0.306873 0
0.61718 0.3125 0
0.61718 0.3125 -0.0078125
0.609375 0.306873 -0.0078125
0.617188 0.312094 0
0.618184 0.3125 0
0.618184 0.3125 -0.0078125
0.617188 0.312094 -0.0078125
0.625 0.315377 0
0.617931 0.3125 0
0.617931 0.3125 -0.0078125
0.625 0.315377 -0.0078125
0.632812 0.317178 -0.0078125
0.632812 0.317178 0
0.625 0.314921 0
0.625 0.314921 -0.0078125
0.625 0.288323 0.0078125
0.621414 0.289062 0.0078125
0.621414 0.289062 0
0.625 0.288323 0
0.632812 0.28772 0
0.632812 0.28772 0.0078125
0.625 0.288437 0.0078125
0.625 0.288437 0
0.604334 0.296875 0
0.609375 0.291382 0
0.609375 0.291382 0.0078125
0.604334 0.296875 0.0078125
0.609375 0.293604 0.0078125
0.617081 0.289062 0.0078125
0.617081 0.289062 0
0.609375 0.293604 0
0.617188 0.28934 0.0078125
0.618532 0.289062 0.0078125
0.618532 0.289062 0
0.617188 0.28934 0
0.604958 0.304688 0
0.604958 0.304688 0.0078125
0.604209 0.296875 0.0078125
0.604209 0.296875 0
0.605785 0.304688 0.0078125
0.609375 0.308364 0.0078125
0.609375 0.308364 0
0.605785 0.304688 0
0.609375 0.306873 0.0078125
0.61718 0.3125 0.0078125
0.61718 0.3125 0
0.609375 0.306873 0
0.617188 0.312094 0.0078125
0.618184 0.3125 0.0078125
0.618184 0.3125 0
0.617188 0.312094 0
0.625 0.315377 0.0078125
0.617931 0.3125 0.0078125
0.617931 0.3125 0
0.625 0.315377 0
0.632812 0.317178 0
0.632812 0.317178 0.0078125
0.625 0.314921 0.0078125
0.625 0.314921 0
0.625 0.288323 0.015625
0.621414 0.289062 0.015625
0.621414 0.289062 0.0078125
0.625 0.288323 0.0078125
0.632812 0.28772 0.0078125
0.632812 0.28772 0.015625
0.625 0.288437 0.015625
0.625 0.288437 0.0078125
0.604334 0.296875 0.0078125
0.609375 0.291382 0.0078125
0.609375 0.291382 0.015625
0.604334 0.296875 0.015625
0.609375 0.293604 0.015625
0.617081 0.289062 0.015625
0.617081 0.289062 0.0078125
0.609375 0.293604 0.0078125
0.617188 0.28934 0.015625
0.618532 0.289062 0.015625
0.618532 0.289062 0.0078125
0.617188 0.28934 0.0078125
0.604958 0.304688 0.0078125
0.604958 0.304688 0.015625
0.604209 0.296875 0.015625
0.604209 0.296875 0.0078125
0.605785 0.304688 0.015625
0.609375 0.308364 0.015625
0.609375 0.308364 0.0078125
0.605785 0.304688 0.0078125
0.609375 0.306873 0.015625
0.61718 0.3125 0.015625
0.61718 0.3125 0.0078125
0.609375 0.306873 0.0078125
0.617188 0.312094 0.015625
0.618184 0.3125 0.015625
0.618184 0.3125 0.0078125
0.617188 0.312094 0.0078125
0.625 0.315377 0.015625
0.617931 0.3125 0.015625
0.617931 0.3125 0.0078125
0.625 0.315377 0.0078125
0.632812 0.317178 0.0078125
0.632812 0.317178 0.015625
0.625 0.314921 0.015625
0.625 0.314921 0.0078125
0.625 0.288323 0.0234375
0.621414 0.289062 0.0234375
0.621414 0.289062 0.015625
0.625 0.288323 0.015625
0.632812 0.28772 0.015625
0.632812 0.28772 0.0234375
0.625 0.288437 0.0234375
0.625 0.288437 0.015625
0.604334 0.296875 0.015625
0.609375 0.291382 0.015625
0.609375 0.291382 0.0234375
0.604334 0.296875 0.0234375
0.609375 0.293604 0.0234375
0.617081 0.289062 0.0234375
0.617081 0.289062 0.015625
0.609375 0.293604 0.015625
0.617188 0.28934 0.0234375
0.618532 0.289062 0.0234375
0.618532 0.289062 0.015625
0.617188 0.28934 0.015625
0.604958 0.304688 0.015625
0.604958 0.304688 0.0234375
0.604209 0.296875 0.0234375
0.604209 0.296875 0.015625
0.605785 0.304688 0.0234375
0.609375 0.308364 0.0234375
0.609375 0.308364 0.015625
0.605785 0.304688 0.015625
0.609375 0.306873 0.0234375
0.61718 0.3125 0.0234375
0.61718 0.3125 0.015625
0.609375 0.306873 0.015625
0.617188 0.312094 0.0234375
0.618184 0.3125 0.0234375
0.618184 0.3125 0.015625
0.617188 0.312094 0.015625
0.625 0.315377 0.0234375
0.617931 0.3125 0.0234375
0.617931 0.3125 0.015625
0.625 0.315377 0.015625
0.632812 0.317178 0.015625
0.632812 0.317178 0.0234375
0.625 0.314921 0.0234375
0.625 0.314921 0.015625
0.625 0.288323 0
0.621414 0.289062 0
0.621414 0.289062 -0.0078125
0.625 0.288323 -0.0078125
0.632812 0.28772 -0.0078125
0.632812 0.28772 0
0.625 0.288437 0
0.625 0.288437 -0.0078125
0.640625 0.287252 -0.0078125
0.640625 0.287252 0
0.632812 0.287712 0
0.632812 0.287712 -0.0078125
0.648438 0.287059 -0.0078125
0.648438 0.287059 0
0.640625 0.287259 0
0.640625 0.287259 -0.0078125
0.648438 0.28707 -0.0078125
0.648438 0.28707 0
0.65625 0.287093 0
0.65625 0.287093 -0.0078125
0.65625 0.287103 -0.0078125
0.65625 0.287103 0
0.664062 0.287308 0
0.664062 0.287308 -0.0078125
0.664062 0.287315 -0.0078125
0.664062 0.287315 0
0.671875 0.287669 0
0.671875 0.287669 -0.0078125
0.671875 0.287675 -0.0078125
0.671875 0.287675 0
0.679688 0.288152 0
0.679688 0.288152 -0.0078125
0.679688 0.288155 -0.0078125
0.679688 0.288155 0
0.6875 0.288737 0
0.6875 0.288737 -0.0078125
0.6875 0.288725 0
0.691205 0.289062 0
0.691205 0.289062 -0.0078125
0.6875 0.288725 -0.0078125
0.617188 0.28934 0
0.618532 0.289062 0
0.618532 0.289062 -0.0078125
0.617188 0.28934 -0.0078125
0.695312 0.289431 0
0.691266 0.289062 0
0.691266 0.289062 -0.0078125
0.695312 0.289431 -0.0078125
0.703125 0.290311 -0.0078125
0.703125 0.290311 0
0.695312 0.289429 0
0.695312 0.289429 -0.0078125
0.710938 0.291374 -0.0078125
0.710938 0.291374 0
0.703125 0.29031 0
0.703125 0.29031 -0.0078125
0.71875 0.292627 -0.0078125
0.71875 0.292627 0
0.710938 0.291372 0
0.710938 0.291372 -0.0078125
0.71875 0.292627 0
0.71875 0.292627 -0.0078125
0.726562 0.294076 -0.0078125
0.726562 0.294076 0
0.726562 0.294067 -0.0078125
0.726562 0.294067 0
0.734375 0.295728 0
0.734375 0.295728 -0.0078125
0.734375 0.295698 0
0.739121 0.296875 0
0.739121 0.296875 -0.0078125
0.734375 0.295698 -0.0078125
0.742188 0.297651 0
0.73906 0.296875 0
0.73906 0.296875 -0.0078125
0.742188 0.297651 -0.0078125
0.75 0.299874 -0.0078125
0.75 0.299874 0
0.742188 0.297673 0
0.742188 0.297673 -0.0078125
0.75 0.299901 -0.0078125
0.75 0.299901 0
0.757812 0.302249 0
0.757812 0.302249 -0.0078125
0.617188 0.312094 0
0.618184 0.3125 0
0.618184 0.3125 -0.0078125
0.617188 0.312094 -0.0078125
0.625 0.315377 0
0.617931 0.3125 0
0.617931 0.3125 -0.0078125
0.625 0.315377 -0.0078125
0.632812 0.317178 -0.0078125
0.632812 0.317178 0
0.625 0.314921 0
0.625 0.314921 -0.0078125
0.632812 0.317236 -0.0078125
0.632812 0.317236 0
0.640625 0.319343 0
0.640625 0.319343 -0.0078125
0.640625 0.319352 0
0.644885 0.320312 0
0.644885 0.320312 -0.0078125
0.640625 0.319352 -0.0078125
0.648438 0.321178 0
0.644596 0.320312 0
0.644596 0.320312 -0.0078125
0.648438 0.321178 -0.0078125
0.65625 0.322551 -0.0078125
0.65625 0.322551 0
0.648438 0.321071 0
0.648438 0.321071 -0.0078125
0.664062 0.323887 -0.0078125
0.664062 0.323887 0
0.65625 0.322558 0
0.65625 0.322558 -0.0078125
0.664062 0.323885 0
0.664062 0.323885 -0.0078125
0.671875 0.325053 -0.0078125
0.671875 0.325053 0
0.671875 0.325054 -0.0078125
0.671875 0.325054 0
0.679688 0.326061 0
0.679688 0.326061 -0.0078125
0.679688 0.32606 -0.0078125
0.679688 0.32606 0
0.6875 0.326908 0
0.6875 0.326908 -0.0078125
0.6875 0.326907 -0.0078125
0.6875 0.326907 0
0.695312 0.327602 0
0.695312 0.327602 -0.0078125
0.695312 0.327601 0
0.702809 0.328125 0
0.702809 0.328125 -0.0078125
0.695312 0.327601 -0.0078125
0.703125 0.328139 0
0.702928 0.328125 0
0.702928 0.328125 -0.0078125
0.703125 0.328139 -0.0078125
0.710938 0.328551 -0.0078125
0.710938 0.328551 0
0.703125 0.328143 0
0.703125 0.328143 -0.0078125
0.71875 0.328831 -0.0078125
0.71875 0.328831 0
0.710938 0.328548 0
0.710938 0.328548 -0.0078125
0.726562 0.328997 0
0.726562 0.328997 -0.0078125
0.71875 0.328831 -0.0078125
0.71875 0.328831 0
0.734375 0.329049 0
0.734375 0.329049 -0.0078125
0.726562 0.328996 -0.0078125
0.726562 0.328996 0
0.734375 0.329048 -0.0078125
0.734375 0.329048 0
0.742188 0.328993 0
0.742188 0.328993 -0.0078125
0.742188 0.328992 -0.0078125
0.742188 0.328992 0
0.75 0.328834 0
0.75 0.328834 -0.0078125
0.75 0.328832 -0.0078125
0.75 0.328832 0
0.757812 0.328577 0
0.757812 0.328577 -0.0078125
0.625 0.288323 0.0078125
0.621414 0.289062 0.0078125
0.621414 0.289062 0
0.625 0.288323 0
0.632812 0.28772 0
0.632812 0.28772 0.0078125
0.625 0.288437 0.0078125
0.625 0.288437 0
0.640625 0.287252 0
0.640625 0.287252 0.0078125
0.632812 0.287712 0.0078125
0.632812 0.287712 0
0.648438 0.287059 0
0.648438 0.287059 0.0078125
0.640625 0.287259 0.0078125
0.640625 0.287259 0
0.648438 0.28707 0
0.648438 0.28707 0.0078125
0.65625 0.287093 0.0078125
0.65625 0.287093 0
0.65625 0.287103 0
0.65625 0.287103 0.0078125
0.664062 0.287308 0.0078125
0.664062 0.287308 0
0.664062 0.287315 0
0.664062 0.287315 0.0078125
0.671875 0.287669 0.0078125
0.671875 0.287669 0
0.671875 0.287675 0
0.671875 0.287675 0.0078125
0.679688 0.288152 0.0078125
0.679688 0.288152 0
0.679688 0.288155 0
0.679688 0.288155 0.0078125
0.6875 0.288737 0.0078125
0.6875 0.288737 0
0.6875 0.288725 0.0078125
0.691205 0.289062 0.0078125
0.691205 0.289062 0
0.6875 0.288725 0
0.617188 0.28934 0.0078125
0.618532 0.289062 0.0078125
0.618532 0.289062 0
0.617188 0.28934 0
0.695312 0.289431 0.0078125
0.691266 0.289062 0.0078125
0.691266 0.289062 0
0.695312 0.289431 0
0.703125 0.290311 0
0.703125 0.290311 0.0078125
0.695312 0.289429 0.0078125
0.695312 0.289429 0
0.710938 0.291374 0
0.710938 0.291374 0.0078125
0.703125 0.29031 0.0078125
0.703125 0.29031 0
0.71875 0.292627 0
0.71875 0.292627 0.0078125
0.710938 0.291372 0.0078125
0.710938 0.291372 0
0.71875 0.292627 0.0078125
0.71875 0.292627 0
0.726562 0.294076 0
0.726562 0.294076 0.0078125
[...]
CELL_DATA 1144
SCALARS c float
LOOKUP_TABLE default
-963921
-963920
-962923
-962922
-962921
-961923
-960923
-960922
-960921
-959921
-959920
36079
36080
37077
37078
37079
38077
39077
39078
39079
40079
40080
1.03608e+06
1.03608e+06
1.03708e+06
1.03708e+06
1.03708e+06
1.03808e+06
1.03908e+06
1.03908e+06
1.03908e+06
1.04008e+06
1.04008e+06
2.03608e+06
2.03608e+06
2.03708e+06
2.03708e+06
2.03708e+06
2.03808e+06
2.03908e+06
2.03908e+06
2.03908e+06
2.04008e+06
2.04008e+06
-963921
-963920
-963919
-963918
-963917
-963916
-963915
-963914
-963913
-963912
-962921
-962912
-962911
-962910
-962909
-962908
-962907
-962906
-961906
-961905
-961904
-960921
-959921
-959920
-959919
-959918
-958918
-958917
-958916
-958915
-958914
-958913
-958912
-958911
-957911
-957910
-957909
-957908
-957907
-957906
-957905
-957904
36079
36080
36081
36082
36083
36084
36085
36086
36087
36088
37079
37088
37089
37090
37091
37092
37093
37094
38094
38095
38096
39079
40079
40080
40081
40082
41082
41083
41084
41085
41086
41087
41088
41089
42089
42090
42091
42092
42093
42094
42095
42096
1.03608e+06
1.03608e+06
1.03608e+06
1.03608e+06
1.03608e+06
1.03608e+06
1.03608e+06
1.03609e+06
1.03609e+06
1.03609e+06
1.03708e+06
1.03709e+06
1.03709e+06
1.03709e+06
1.03709e+06
1.03709e+06
1.03709e+06
1.03709e+06
1.03809e+06
1.0381e+06
1.0381e+06
1.03908e+06
1.04008e+06
1.04008e+06
1.04008e+06
1.04008e+06
1.04108e+06
1.04108e+06
1.04108e+06
1.04108e+06
1.04109e+06
1.04109e+06
1.04109e+06
1.04109e+06
1.04209e+06
1.04209e+06
1.04209e+06
1.04209e+06
1.04209e+06
1.04209e+06
1.0421e+06
1.0421e+06
2.03608e+06
2.03608e+06
2.03608e+06
2.03608e+06
2.03608e+06
2.03608e+06
2.03608e+06
2.03609e+06
2.03609e+06
2.03609e+06
2.03708e+06
2.03709e+06
2.03709e+06
2.03709e+06
2.03709e+06
2.03709e+06
2.03709e+06
2.03709e+06
2.03809e+06
2.0381e+06
2.0381e+06
2.03908e+06
2.04008e+06
2.04008e+06
2.04008e+06
2.04008e+06
2.04108e+06
2.04108e+06
2.04108e+06
2.04108e+06
2.04109e+06
2.04109e+06
2.04109e+06
2.04109e+06
2.04209e+06
2.04209e+06
2.04209e+06
2.04209e+06
2.04209e+06
2.04209e+06
2.0421e+06
2.0421e+06
-961905
-961904
-961903
-961902
-960903
-960902
-960901
-960900
-960899
-960898
-960897
-960896
-960895
-960894
-960893
-960892
-960891
-960890
-960889
-960888
-958902
-958901
-958900
-958899
-958898
-958897
-958896
-958895
-958894
-958893
-958892
-958891
-958890
-958889
-958888
-957905
-957904
-957903
-957902
38095
38096
38097
38098
39097
39098
39099
39100
39101
39102
39103
39104
39105
39106
39107
39108
39109
39110
39111
39112
41098
41099
41100
41101
41102
41103
41104
41105
41106
41107
41108
41109
41110
41111
41112
42095
42096
42097
42098
1.0381e+06
1.0381e+06
1.0381e+06
1.0381e+06
1.0391e+06
1.0391e+06
1.0391e+06
1.0391e+06
1.0391e+06
1.0391e+06
1.0391e+06
1.0391e+06
1.0391e+06
1.03911e+06
1.03911e+06
1.03911e+06
1.03911e+06
1.03911e+06
1.03911e+06
1.03911e+06
1.0411e+06
1.0411e+06
1.0411e+06
1.0411e+06
1.0411e+06
1.0411e+06
1.0411e+06
1.0411e+06
1.04111e+06
1.04111e+06
1.04111e+06
1.04111e+06
1.04111e+06
1.04111e+06
1.04111e+06
1.0421e+06
1.0421e+06
1.0421e+06
1.0421e+06
2.0381e+06
2.0381e+06
2.0381e+06
2.0381e+06
2.0391e+06
2.0391e+06
2.0391e+06
2.0391e+06
2.0391e+06
2.0391e+06
2.0391e+06
2.0391e+06
2.0391e+06
2.03911e+06
2.03911e+06
2.03911e+06
2.03911e+06
2.03911e+06
2.03911e+06
2.03911e+06
2.0411e+06
2.0411e+06
2.0411e+06
2.0411e+06
2.0411e+06
2.0411e+06
2.0411e+06
2.0411e+06
2.04111e+06
2.04111e+06
2.04111e+06
2.04111e+06
2.04111e+06
2.04111e+06
2.04111e+06
2.0421e+06
2.0421e+06
2.0421e+06
2.0421e+06
-969872
-968872
-967872
30128
31128
32128
1.03013e+06
1.03113e+06
1.03213e+06
2.03013e+06
2.03113e+06
2.03213e+06
-968872
-967872
-966873
-966872
-965874
-965873
-964874
-963876
-963875
-963874
-962878
-962877
-962876
-961886
-961885
-961884
-961883
-961882
-961881
-961880
-961879
-961878
-960889
-960888
-960887
-958889
-958888
-958887
-958886
-958885
-958884
-958883
-958882
-958881
-958880
-958879
-958878
-958877
-958876
-958875
-958874
-958873
-958872
31128
32128
33127
33128
34126
34127
35126
36124
36125
36126
37122
37123
37124
38114
38115
38116
38117
38118
38119
38120
38121
38122
39111
39112
39113
41111
41112
41113
41114
41115
41116
41117
41118
41119
41120
41121
41122
41123
41124
41125
41126
41127
41128
1.03113e+06
1.03213e+06
1.03313e+06
1.03313e+06
1.03413e+06
1.03413e+06
1.03513e+06
1.03612e+06
1.03612e+06
1.03613e+06
1.03712e+06
1.03712e+06
1.03712e+06
1.03811e+06
1.03812e+06
1.03812e+06
1.03812e+06
1.03812e+06
1.03812e+06
1.03812e+06
1.03812e+06
1.03812e+06
1.03911e+06
1.03911e+06
1.03911e+06
1.04111e+06
1.04111e+06
1.04111e+06
1.04111e+06
1.04112e+06
1.04112e+06
1.04112e+06
1.04112e+06
1.04112e+06
1.04112e+06
1.04112e+06
1.04112e+06
1.04112e+06
1.04112e+06
1.04112e+06
1.04113e+06
1.04113e+06
1.04113e+06
2.03113e+06
2.03213e+06
2.03313e+06
2.03313e+06
2.03413e+06
2.03413e+06
2.03513e+06
2.03612e+06
2.03612e+06
2.03613e+06
2.03712e+06
2.03712e+06
2.03712e+06
2.03811e+06
2.03812e+06
2.03812e+06
2.03812e+06
2.03812e+06
2.03812e+06
2.03812e+06
2.03812e+06
2.03812e+06
2.03911e+06
2.03911e+06
2.03911e+06
2.04111e+06
2.04111e+06
2.04111e+06
2.04111e+06
2.04112e+06
2.04112e+06
2.04112e+06
2.04112e+06
2.04112e+06
2.04112e+06
2.04112e+06
2.04112e+06
2.04112e+06
2.04112e+06
2.04112e+06
2.04113e+06
2.04113e+06
2.04113e+06
-1.00187e+06
-1.00087e+06
-999870
-998870
-997870
-996870
-995870
-994870
-993870
-992870
-991870
-990870
-989870
-988870
-987870
-986870
-985870
-984870
-983870
-1870
-870
130
1130
2130
3130
4130
5130
6130
7130
8130
9130
10130
11130
12130
13130
14130
15130
16130
998130
999130
1.00013e+06
1.00113e+06
1.00213e+06
1.00313e+06
1.00413e+06
1.00513e+06
1.00613e+06
1.00713e+06
1.00813e+06
1.00913e+06
1.01013e+06
1.01113e+06
1.01213e+06
1.01313e+06
1.01413e+06
1.01513e+06
1.01613e+06
1.99813e+06
1.99913e+06
2.00013e+06
2.00113e+06
2.00213e+06
2.00313e+06
2.00413e+06
2.00513e+06
2.00613e+06
2.00713e+06
2.00813e+06
2.00913e+06
2.01013e+06
2.01113e+06
2.01213e+06
2.01313e+06
2.01413e+06
2.01513e+06
2.01613e+06
-984870
-983870
-982870
-981870
-980870
-979870
-978870
-977870
-976870
-975870
-974871
-974870
-973871
-972871
-971871
-970871
-969872
-969871
-968872
-967872
15130
16130
17130
18130
19130
20130
21130
22130
23130
24130
25129
25130
26129
27129
28129
29129
30128
30129
31128
32128
1.01513e+06
1.01613e+06
1.01713e+06
1.01813e+06
1.01913e+06
1.02013e+06
1.02113e+06
1.02213e+06
1.02313e+06
1.02413e+06
1.02513e+06
1.02513e+06
1.02613e+06
1.02713e+06
1.02813e+06
1.02913e+06
1.03013e+06
1.03013e+06
1.03113e+06
1.03213e+06
2.01513e+06
2.01613e+06
2.01713e+06
2.01813e+06
2.01913e+06
2.02013e+06
2.02113e+06
2.02213e+06
2.02313e+06
2.02413e+06
2.02513e+06
2.02513e+06
2.02613e+06
2.02713e+06
2.02813e+06
2.02913e+06
2.03013e+06
2.03013e+06
2.03113e+06
2.03213e+06
-968872
-967872
-966873
-966872
-965873
-961856
-960860
-960859
-960858
-960857
-960856
-959864
-959863
-959862
-959861
-959860
-958873
-958872
-958871
-958870
-958869
-958868
-958867
-958866
-958865
-958864
31128
32128
33127
33128
34127
38144
39140
39141
39142
39143
39144
40136
40137
40138
40139
40140
41127
41128
41129
41130
41131
41132
41133
41134
41135
41136
1.03113e+06
1.03213e+06
1.03313e+06
1.03313e+06
1.03413e+06
1.03814e+06
1.03914e+06
1.03914e+06
1.03914e+06
1.03914e+06
1.03914e+06
1.04014e+06
1.04014e+06
1.04014e+06
1.04014e+06
1.04014e+06
1.04113e+06
1.04113e+06
1.04113e+06
1.04113e+06
1.04113e+06
1.04113e+06
1.04113e+06
1.04113e+06
1.04114e+06
1.04114e+06
2.03113e+06
2.03213e+06
2.03313e+06
2.03313e+06
2.03413e+06
2.03814e+06
2.03914e+06
2.03914e+06
2.03914e+06
2.03914e+06
2.03914e+06
2.04014e+06
2.04014e+06
2.04014e+06
2.04014e+06
2.04014e+06
2.04113e+06
2.04113e+06
2.04113e+06
2.04113e+06
2.04113e+06
2.04113e+06
2.04113e+06
2.04113e+06
2.04114e+06
2.04114e+06
-970841
-970840
-969842
-969841
-968843
-968842
-967845
-967844
-967843
29159
29160
30158
30159
31157
31158
32155
32156
32157
1.02916e+06
1.02916e+06
1.03016e+06
1.03016e+06
1.03116e+06
1.03116e+06
1.03216e+06
1.03216e+06
1.03216e+06
2.02916e+06
2.02916e+06
2.03016e+06
2.03016e+06
2.03116e+06
2.03116e+06
2.03216e+06
2.03216e+06
2.03216e+06
-968843
-968842
-967845
-967844
-967843
-966846
-966845
-965848
-965847
-965846
-964850
-964849
-964848
-963852
-963851
-963850
-962854
-962853
-962852
-961856
-961855
-961854
-960857
-960856
31157
31158
32155
32156
32157
33154
33155
34152
34153
34154
35150
35151
35152
36148
36149
36150
37146
37147
37148
38144
38145
38146
39143
39144
1.03116e+06
1.03116e+06
1.03216e+06
1.03216e+06
1.03216e+06
1.03315e+06
1.03316e+06
1.03415e+06
1.03415e+06
1.03415e+06
1.03515e+06
1.03515e+06
1.03515e+06
1.03615e+06
1.03615e+06
1.03615e+06
1.03715e+06
1.03715e+06
1.03715e+06
1.03814e+06
1.03814e+06
1.03815e+06
1.03914e+06
1.03914e+06
2.03116e+06
2.03116e+06
2.03216e+06
2.03216e+06
2.03216e+06
2.03315e+06
2.03316e+06
2.03415e+06
2.03415e+06
2.03415e+06
2.03515e+06
2.03515e+06
2.03515e+06
2.03615e+06
2.03615e+06
2.03615e+06
2.03715e+06
2.03715e+06
2.03715e+06
2.03814e+06
2.03814e+06
2.03815e+06
2.03914e+06
2.03914e+06
-1.00183e+06
-1.00083e+06
-999826
-998826
-997826
-996826
-995827
-995826
-994827
-993827
-992827
-991827
-990828
-990827
-989828
-988828
-987829
-987828
-986829
-985829
-984830
-984829
-983830
-1826
-826
174
1174
2174
3174
4173
4174
5173
6173
7173
8173
9172
9173
10172
11172
12171
12172
13171
14171
15170
15171
16170
998174
999174
1.00017e+06
1.00117e+06
1.00217e+06
1.00317e+06
1.00417e+06
1.00417e+06
1.00517e+06
1.00617e+06
1.00717e+06
1.00817e+06
1.00917e+06
1.00917e+06
1.01017e+06
1.01117e+06
1.01217e+06
1.01217e+06
1.01317e+06
1.01417e+06
1.01517e+06
1.01517e+06
1.01617e+06
1.99817e+06
1.99917e+06
2.00017e+06
2.00117e+06
2.00217e+06
2.00317e+06
2.00417e+06
2.00417e+06
2.00517e+06
2.00617e+06
2.00717e+06
2.00817e+06
2.00917e+06
2.00917e+06
2.01017e+06
2.01117e+06
2.01217e+06
2.01217e+06
2.01317e+06
2.01417e+06
2.01517e+06
2.01517e+06
2.01617e+06
-984830
-984829
-983830
-982831
-982830
-981831
-980832
-980831
-979833
-979832
-978833
-977834
-977833
-976835
-976834
-975836
-975835
-974836
-973837
-972838
-972837
-971839
-971838
-970841
-970840
-970839
-969841
15170
15171
16170
17169
17170
18169
19168
19169
20167
20168
21167
22166
22167
23165
23166
24164
24165
25164
26163
27162
27163
28161
28162
29159
29160
29161
30159
1.01517e+06
1.01517e+06
1.01617e+06
1.01717e+06
1.01717e+06
1.01817e+06
1.01917e+06
1.01917e+06
1.02017e+06
1.02017e+06
1.02117e+06
1.02217e+06
1.02217e+06
1.02316e+06
1.02317e+06
1.02416e+06
1.02416e+06
1.02516e+06
1.02616e+06
1.02716e+06
1.02716e+06
1.02816e+06
1.02816e+06
1.02916e+06
1.02916e+06
1.02916e+06
1.03016e+06
2.01517e+06
2.01517e+06
2.01617e+06
2.01717e+06
2.01717e+06
2.01817e+06
2.01917e+06
2.01917e+06
2.02017e+06
2.02017e+06
2.02117e+06
2.02217e+06
2.02217e+06
2.02316e+06
2.02317e+06
2.02416e+06
2.02416e+06
2.02516e+06
2.02616e+06
2.02716e+06
2.02716e+06
2.02816e+06
2.02816e+06
2.02916e+06
2.02916e+06
2.02916e+06
2.03016e+06
