# vtk DataFile Version 2.0
Reconstructed linear interface
ASCII
DATASET POLYDATA
POINTS 3008 float
0.37095 -0.0078125 -0.0078125
0.37095 -0.0078125 0
0.370659 -0.015625 0
0.370659 -0.015625 -0.0078125
0.371179 -0.0078125 -0.0078125
0.371179 -0.0078125 0
0.371428 0 0
0.371428 0 -0.0078125
0.371179 0.0078125 -0.0078125
0.371179 0.0078125 0
0.371428 0 0
0.371428 0 -0.0078125
0.37095 0.0078125 -0.0078125
0.37095 0.0078125 0
0.370659 0.015625 0
0.370659 0.015625 -0.0078125
0.370783 0.015625 -0.0078125
0.370783 0.015625 0
0.370663 0.0234375 0
0.370663 0.0234375 -0.0078125
0.370615 0.0234375 -0.0078125
0.370615 0.0234375 0
0.370517 0.03125 0
0.370517 0.03125 -0.0078125
0.370533 0.03125 -0.0078125
0.370533 0.03125 0
0.37052 0.0390625 0
0.37052 0.0390625 -0.0078125
0.37057 0.046875 0
0.37057 0.046875 -0.0078125
0.370513 0.0390625 -0.0078125
0.370513 0.0390625 0
0.370711 0.0546875 -0.0078125
0.370711 0.0546875 0
0.37057 0.046875 0
0.37057 0.046875 -0.0078125
0.370941 0.0625 -0.0078125
0.370941 0.0625 0
0.370706 0.0546875 0
0.370706 0.0546875 -0.0078125
0.370937 0.0625 0
0.370937 0.0625 -0.0078125
0.371282 0.0703125 -0.0078125
0.371282 0.0703125 0
0.371277 0.0703125 -0.0078125
0.371277 0.0703125 0
0.371749 0.078125 0
0.371749 0.078125 -0.0078125
0.371743 0.078125 0
0.371743 0.078125 -0.0078125
0.372365 0.0859375 -0.0078125
0.372365 0.0859375 0
0.372362 0.0859375 0
0.372362 0.0859375 -0.0078125
0.373152 0.09375 -0.0078125
0.373152 0.09375 0
0.373147 0.09375 -0.0078125
0.373147 0.09375 0
0.374122 0.101562 0
0.374122 0.101562 -0.0078125
0.37412 0.101562 0
0.375 0.10744 0
0.375 0.10744 -0.0078125
0.37412 0.101562 -0.0078125
0.375301 0.109375 0
0.375 0.107365 0
0.375 0.107365 -0.0078125
0.375301 0.109375 -0.0078125
0.376688 0.117188 -0.0078125
0.376688 0.117188 0
0.375263 0.109375 0
0.375263 0.109375 -0.0078125
0.378413 0.125 -0.0078125
0.378413 0.125 0
0.376704 0.117188 0
0.376704 0.117188 -0.0078125
0.3784 0.125 0
0.3784 0.125 -0.0078125
0.380387 0.132812 -0.0078125
0.380387 0.132812 0
0.37095 -0.0078125 0
0.37095 -0.0078125 0.0078125
0.370659 -0.015625 0.0078125
0.370659 -0.015625 0
0.371179 -0.0078125 0
0.371179 -0.0078125 0.0078125
0.371428 0 0.0078125
0.371428 0 0
0.371179 0.0078125 0
0.371179 0.0078125 0.0078125
0.371428 0 0.0078125
0.371428 0 0
0.37095 0.0078125 0
0.37095 0.0078125 0.0078125
0.370659 0.015625 0.0078125
0.370659 0.015625 0
0.370783 0.015625 0
0.370783 0.015625 0.0078125
0.370663 0.0234375 0.0078125
0.370663 0.0234375 0
0.370615 0.0234375 0
0.370615 0.0234375 0.0078125
0.370517 0.03125 0.0078125
0.370517 0.03125 0
0.370533 0.03125 0
0.370533 0.03125 0.0078125
0.37052 0.0390625 0.0078125
0.37052 0.0390625 0
0.37057 0.046875 0.0078125
0.37057 0.046875 0
0.370513 0.0390625 0
0.370513 0.0390625 0.0078125
0.370711 0.0546875 0
0.370711 0.0546875 0.0078125
0.37057 0.046875 0.0078125
0.37057 0.046875 0
0.370941 0.0625 0
0.370941 0.0625 0.0078125
0.370706 0.0546875 0.0078125
0.370706 0.0546875 0
0.370937 0.0625 0.0078125
0.370937 0.0625 0
0.371282 0.0703125 0
0.371282 0.0703125 0.0078125
0.371277 0.0703125 0
0.371277 0.0703125 0.0078125
0.371749 0.078125 0.0078125
0.371749 0.078125 0
0.371743 0.078125 0.0078125
0.371743 0.078125 0
0.372365 0.0859375 0
0.372365 0.0859375 0.0078125
0.372362 0.0859375 0.0078125
0.372362 0.0859375 0
0.373152 0.09375 0
0.373152 0.09375 0.0078125
0.373147 0.09375 0
0.373147 0.09375 0.0078125
0.374122 0.101562 0.0078125
0.374122 0.101562 0
0.37412 0.101562 0.0078125
0.375 0.10744 0.0078125
0.375 0.10744 0
0.37412 0.101562 0
0.375301 0.109375 0.0078125
0.375 0.107365 0.0078125
0.375 0.107365 0
0.375301 0.109375 0
0.376688 0.117188 0
0.376688 0.117188 0.0078125
0.375263 0.109375 0.0078125
0.375263 0.109375 0
0.378413 0.125 0
0.378413 0.125 0.0078125
0.376704 0.117188 0.0078125
0.376704 0.117188 0
0.3784 0.125 0.0078125
0.3784 0.125 0
0.380387 0.132812 0
0.380387 0.132812 0.0078125
0.37095 -0.0078125 0.0078125
0.37095 -0.0078125 0.015625
0.370659 -0.015625 0.015625
0.370659 -0.015625 0.0078125
0.371179 -0.0078125 0.0078125
0.371179 -0.0078125 0.015625
0.371428 0 0.015625
0.371428 0 0.0078125
0.371179 0.0078125 0.0078125
0.371179 0.0078125 0.015625
0.371428 0 0.015625
0.371428 0 0.0078125
0.37095 0.0078125 0.0078125
0.37095 0.0078125 0.015625
0.370659 0.015625 0.015625
0.370659 0.015625 0.0078125
0.370783 0.015625 0.0078125
0.370783 0.015625 0.015625
0.370663 0.0234375 0.015625
0.370663 0.0234375 0.0078125
0.370615 0.0234375 0.0078125
0.370615 0.0234375 0.015625
0.370517 0.03125 0.015625
0.370517 0.03125 0.0078125
0.370533 0.03125 0.0078125
0.370533 0.03125 0.015625
0.37052 0.0390625 0.015625
0.37052 0.0390625 0.0078125
0.37057 0.046875 0.015625
0.37057 0.046875 0.0078125
0.370513 0.0390625 0.0078125
0.370513 0.0390625 0.015625
0.370711 0.0546875 0.0078125
0.370711 0.0546875 0.015625
0.37057 0.046875 0.015625
0.37057 0.046875 0.0078125
0.370941 0.0625 0.0078125
0.370941 0.0625 0.015625
0.370706 0.0546875 0.015625
0.370706 0.0546875 0.0078125
0.370937 0.0625 0.015625
0.370937 0.0625 0.0078125
0.371282 0.0703125 0.0078125
0.371282 0.0703125 0.015625
0.371277 0.0703125 0.0078125
0.371277 0.0703125 0.015625
0.371749 0.078125 0.015625
0.371749 0.078125 0.0078125
0.371743 0.078125 0.015625
0.371743 0.078125 0.0078125
0.372365 0.0859375 0.0078125
0.372365 0.0859375 0.015625
0.372362 0.0859375 0.015625
0.372362 0.0859375 0.0078125
0.373152 0.09375 0.0078125
0.373152 0.09375 0.015625
0.373147 0.09375 0.0078125
0.373147 0.09375 0.015625
0.374122 0.101562 0.015625
0.374122 0.101562 0.0078125
0.37412 0.101562 0.015625
0.375 0.10744 0.015625
0.375 0.10744 0.0078125
0.37412 0.101562 0.0078125
0.375301 0.109375 0.015625
0.375 0.107365 0.015625
0.375 0.107365 0.0078125
0.375301 0.109375 0.0078125
0.376688 0.117188 0.0078125
0.376688 0.117188 0.015625
0.375263 0.109375 0.015625
0.375263 0.109375 0.0078125
0.378413 0.125 0.0078125
0.378413 0.125 0.015625
0.376704 0.117188 0.015625
0.376704 0.117188 0.0078125
0.3784 0.125 0.015625
0.3784 0.125 0.0078125
0.380387 0.132812 0.0078125
0.380387 0.132812 0.015625
0.37095 -0.0078125 0.015625
0.37095 -0.0078125 0.0234375
0.370659 -0.015625 0.0234375
0.370659 -0.015625 0.015625
0.371179 -0.0078125 0.015625
0.371179 -0.0078125 0.0234375
0.371428 0 0.0234375
0.371428 0 0.015625
0.371179 0.0078125 0.015625
0.371179 0.0078125 0.0234375
0.371428 0 0.0234375
0.371428 0 0.015625
0.37095 0.0078125 0.015625
0.37095 0.0078125 0.0234375
0.370659 0.015625 0.0234375
0.370659 0.015625 0.015625
0.370783 0.015625 0.015625
0.370783 0.015625 0.0234375
0.370663 0.0234375 0.0234375
0.370663 0.0234375 0.015625
0.370615 0.0234375 0.015625
0.370615 0.0234375 0.0234375
0.370517 0.03125 0.0234375
0.370517 0.03125 0.015625
0.370533 0.03125 0.015625
0.370533 0.03125 0.0234375
0.37052 0.0390625 0.0234375
0.37052 0.0390625 0.015625
0.37057 0.046875 0.0234375
0.37057 0.046875 0.015625
0.370513 0.0390625 0.015625
0.370513 0.0390625 0.0234375
0.370711 0.0546875 0.015625
0.370711 0.0546875 0.0234375
0.37057 0.046875 0.0234375
0.37057 0.046875 0.015625
0.370941 0.0625 0.015625
0.370941 0.0625 0.0234375
0.370706 0.0546875 0.0234375
0.370706 0.0546875 0.015625
0.370937 0.0625 0.0234375
0.370937 0.0625 0.015625
0.371282 0.0703125 0.015625
0.371282 0.0703125 0.0234375
0.371277 0.0703125 0.015625
0.371277 0.0703125 0.0234375
0.371749 0.078125 0.0234375
0.371749 0.078125 0.015625
0.371743 0.078125 0.0234375
0.371743 0.078125 0.015625
0.372365 0.0859375 0.015625
0.372365 0.0859375 0.0234375
0.372362 0.0859375 0.0234375
0.372362 0.0859375 0.015625
0.373152 0.09375 0.015625
0.373152 0.09375 0.0234375
0.373147 0.09375 0.015625
0.373147 0.09375 0.0234375
0.374122 0.101562 0.0234375
0.374122 0.101562 0.015625
0.37412 0.101562 0.0234375
0.375 0.10744 0.0234375
0.375 0.10744 0.015625
0.37412 0.101562 0.015625
0.375301 0.109375 0.0234375
0.375 0.107365 0.0234375
0.375 0.107365 0.015625
0.375301 0.109375 0.015625
0.376688 0.117188 0.015625
0.376688 0.117188 0.0234375
0.375263 0.109375 0.0234375
0.375263 0.109375 0.015625
0.378413 0.125 0.015625
0.378413 0.125 0.0234375
0.376704 0.117188 0.0234375
0.376704 0.117188 0.015625
0.3784 0.125 0.0234375
0.3784 0.125 0.015625
0.380387 0.132812 0.015625
0.380387 0.132812 0.0234375
0.378413 0.125 -0.0078125
0.378413 0.125 0
0.376704 0.117188 0
0.376704 0.117188 -0.0078125
0.3784 0.125 0
0.3784 0.125 -0.0078125
0.380387 0.132812 -0.0078125
0.380387 0.132812 0
0.380378 0.132812 -0.0078125
0.380378 0.132812 0
0.38269 0.140625 0
0.38269 0.140625 -0.0078125
0.382633 0.140625 0
0.382812 0.141153 0
0.382812 0.141153 -0.0078125
0.382633 0.140625 -0.0078125
0.378413 0.125 0
0.378413 0.125 0.0078125
0.376704 0.117188 0.0078125
0.376704 0.117188 0
0.3784 0.125 0.0078125
0.3784 0.125 0
0.380387 0.132812 0
0.380387 0.132812 0.0078125
0.380378 0.132812 0
0.380378 0.132812 0.0078125
0.38269 0.140625 0.0078125
0.38269 0.140625 0
0.382633 0.140625 0.0078125
0.382812 0.141153 0.0078125
0.382812 0.141153 0
0.382633 0.140625 0
0.378413 0.125 0.0078125
0.378413 0.125 0.015625
0.376704 0.117188 0.015625
0.376704 0.117188 0.0078125
0.3784 0.125 0.015625
0.3784 0.125 0.0078125
0.380387 0.132812 0.0078125
0.380387 0.132812 0.015625
0.380378 0.132812 0.0078125
0.380378 0.132812 0.015625
0.38269 0.140625 0.015625
0.38269 0.140625 0.0078125
0.382633 0.140625 0.015625
0.382812 0.141153 0.015625
0.382812 0.141153 0.0078125
0.382633 0.140625 0.0078125
0.378413 0.125 0.015625
0.378413 0.125 0.0234375
0.376704 0.117188 0.0234375
0.376704 0.117188 0.015625
0.3784 0.125 0.0234375
0.3784 0.125 0.015625
0.380387 0.132812 0.015625
0.380387 0.132812 0.0234375
0.380378 0.132812 0.015625
0.380378 0.132812 0.0234375
0.38269 0.140625 0.0234375
0.38269 0.140625 0.015625
0.382633 0.140625 0.0234375
0.382812 0.141153 0.0234375
0.382812 0.141153 0.015625
0.382633 0.140625 0.015625
0.37095 -0.0078125 -0.0078125
0.37095 -0.0078125 0
0.370659 -0.015625 0
0.370659 -0.015625 -0.0078125
0.371179 -0.0078125 -0.0078125
0.371179 -0.0078125 0
0.371428 0 0
0.371428 0 -0.0078125
0.371179 0.0078125 -0.0078125
0.371179 0.0078125 0
[...]
CELL_DATA 752
SCALARS c float
LOOKUP_TABLE default
-1.00195e+06
-1.00095e+06
-999953
-998953
-997953
-996953
-995953
-994953
-993953
-992953
-991953
-990953
-989953
-988953
-987953
-986953
-986952
-985952
-984952
-983952
-1953
-953
47
1047
2047
3047
4047
5047
6047
7047
8047
9047
10047
11047
12047
13047
13048
14048
15048
16048
998047
999047
1.00005e+06
1.00105e+06
1.00205e+06
1.00305e+06
1.00405e+06
1.00505e+06
1.00605e+06
1.00705e+06
1.00805e+06
1.00905e+06
1.01005e+06
1.01105e+06
1.01205e+06
1.01305e+06
1.01305e+06
1.01405e+06
1.01505e+06
1.01605e+06
1.99805e+06
1.99905e+06
2.00005e+06
2.00105e+06
2.00205e+06
2.00305e+06
2.00405e+06
2.00505e+06
2.00605e+06
2.00705e+06
2.00805e+06
2.00905e+06
2.01005e+06
2.01105e+06
2.01205e+06
2.01305e+06
2.01305e+06
2.01405e+06
2.01505e+06
2.01605e+06
-984952
-983952
-982952
-981952
15048
16048
17048
18048
1.01505e+06
1.01605e+06
1.01705e+06
1.01805e+06
2.01505e+06
2.01605e+06
2.01705e+06
2.01805e+06
-1.00195e+06
-1.00095e+06
-999953
-998953
-997953
-996953
-995953
-994953
-993953
-992953
-991953
-990953
-989953
-988953
-987953
-986953
-986952
-985952
-984952
-983952
-1953
-953
47
1047
2047
3047
4047
5047
6047
7047
8047
9047
10047
11047
12047
13047
13048
14048
15048
16048
998047
999047
1.00005e+06
1.00105e+06
1.00205e+06
1.00305e+06
1.00405e+06
1.00505e+06
1.00605e+06
1.00705e+06
1.00805e+06
1.00905e+06
1.01005e+06
1.01105e+06
1.01205e+06
1.01305e+06
1.01305e+06
1.01405e+06
1.01505e+06
1.01605e+06
1.99805e+06
1.99905e+06
2.00005e+06
2.00105e+06
2.00205e+06
2.00305e+06
2.00405e+06
2.00505e+06
2.00605e+06
2.00705e+06
2.00805e+06
2.00905e+06
2.01005e+06
2.01105e+06
2.01205e+06
2.01305e+06
2.01305e+06
2.01405e+06
2.01505e+06
2.01605e+06
-984952
-983952
-982952
-981952
-981951
-980951
-979951
-979950
-978950
-977950
-977949
-976949
-975949
-975948
-974948
-974947
-973947
-973946
-972946
-972945
-971945
-971944
-970944
-970943
-970942
-969942
-969941
-968941
-968940
-968939
-968938
-967938
-967937
-967936
15048
16048
17048
18048
18049
19049
20049
20050
21050
22050
22051
23051
24051
24052
25052
25053
26053
26054
27054
27055
28055
28056
29056
29057
29058
30058
30059
31059
31060
31061
31062
32062
32063
32064
1.01505e+06
1.01605e+06
1.01705e+06
1.01805e+06
1.01805e+06
1.01905e+06
1.02005e+06
1.02005e+06
1.02105e+06
1.02205e+06
1.02205e+06
1.02305e+06
1.02405e+06
1.02405e+06
1.02505e+06
1.02505e+06
1.02605e+06
1.02605e+06
1.02705e+06
1.02706e+06
1.02806e+06
1.02806e+06
1.02906e+06
1.02906e+06
1.02906e+06
1.03006e+06
1.03006e+06
1.03106e+06
1.03106e+06
1.03106e+06
1.03106e+06
1.03206e+06
1.03206e+06
1.03206e+06
2.01505e+06
2.01605e+06
2.01705e+06
2.01805e+06
2.01805e+06
2.01905e+06
2.02005e+06
2.02005e+06
2.02105e+06
2.02205e+06
2.02205e+06
2.02305e+06
2.02405e+06
2.02405e+06
2.02505e+06
2.02505e+06
2.02605e+06
2.02605e+06
2.02705e+06
2.02706e+06
2.02806e+06
2.02806e+06
2.02906e+06
2.02906e+06
2.02906e+06
2.03006e+06
2.03006e+06
2.03106e+06
2.03106e+06
2.03106e+06
2.03106e+06
2.03206e+06
2.03206e+06
2.03206e+06
-968941
-968940
-968939
-968938
-967938
-967937
-967936
31059
31060
31061
31062
32062
32063
32064
1.03106e+06
1.03106e+06
1.03106e+06
1.03106e+06
1.03206e+06
1.03206e+06
1.03206e+06
2.03106e+06
2.03106e+06
2.03106e+06
2.03106e+06
2.03206e+06
2.03206e+06
2.03206e+06
-967937
-967936
-967935
-967922
-967921
-967920
32063
32064
32065
32078
32079
32080
1.03206e+06
1.03206e+06
1.03206e+06
1.03208e+06
1.03208e+06
1.03208e+06
2.03206e+06
2.03206e+06
2.03206e+06
2.03208e+06
2.03208e+06
2.03208e+06
-967937
-967936
-967935
-967922
-967921
-967920
-966935
-966934
-966933
-966932
-966931
-966930
-966929
-966928
-966927
-966926
-966925
-966924
-966923
-966922
32063
32064
32065
32078
32079
32080
33065
33066
33067
33068
33069
33070
33071
33072
33073
33074
33075
33076
33077
33078
1.03206e+06
1.03206e+06
1.03206e+06
1.03208e+06
1.03208e+06
1.03208e+06
1.03306e+06
1.03307e+06
1.03307e+06
1.03307e+06
1.03307e+06
1.03307e+06
1.03307e+06
1.03307e+06
1.03307e+06
1.03307e+06
1.03308e+06
1.03308e+06
1.03308e+06
1.03308e+06
2.03206e+06
2.03206e+06
2.03206e+06
2.03208e+06
2.03208e+06
2.03208e+06
2.03306e+06
2.03307e+06
2.03307e+06
2.03307e+06
2.03307e+06
2.03307e+06
2.03307e+06
2.03307e+06
2.03307e+06
2.03307e+06
2.03308e+06
2.03308e+06
2.03308e+06
2.03308e+06
-977904
-976905
-976904
-975906
-975905
-974907
-974906
-973908
-973907
-972910
-972909
-972908
-971911
-971910
-970913
-970912
-970911
-969915
-969914
-969913
-968918
-968917
-968916
-968915
-967921
-967920
-967919
-967918
22096
23095
23096
24094
24095
25093
25094
26092
26093
27090
27091
27092
28089
28090
29087
29088
29089
30085
30086
30087
31082
31083
31084
31085
32079
32080
32081
32082
1.0221e+06
1.0231e+06
1.0231e+06
1.02409e+06
1.0241e+06
1.02509e+06
1.02509e+06
1.02609e+06
1.02609e+06
1.02709e+06
1.02709e+06
1.02709e+06
1.02809e+06
1.02809e+06
1.02909e+06
1.02909e+06
1.02909e+06
1.03008e+06
1.03009e+06
1.03009e+06
1.03108e+06
1.03108e+06
1.03108e+06
1.03108e+06
1.03208e+06
1.03208e+06
1.03208e+06
1.03208e+06
2.0221e+06
2.0231e+06
2.0231e+06
2.02409e+06
2.0241e+06
2.02509e+06
2.02509e+06
2.02609e+06
2.02609e+06
2.02709e+06
2.02709e+06
2.02709e+06
2.02809e+06
2.02809e+06
2.02909e+06
2.02909e+06
2.02909e+06
2.03008e+06
2.03009e+06
2.03009e+06
2.03108e+06
2.03108e+06
2.03108e+06
2.03108e+06
2.03208e+06
2.03208e+06
2.03208e+06
2.03208e+06
-968918
-968917
-968916
-968915
-967921
-967920
-967919
-967918
31082
31083
31084
31085
32079
32080
32081
32082
1.03108e+06
1.03108e+06
1.03108e+06
1.03108e+06
1.03208e+06
1.03208e+06
1.03208e+06
1.03208e+06
2.03108e+06
2.03108e+06
2.03108e+06
2.03108e+06
2.03208e+06
2.03208e+06
2.03208e+06
2.03208e+06
-1.00189e+06
-1.00089e+06
-999894
-998894
-997894
-996894
-995895
-995894
-994895
-993895
-992895
-991895
-990896
-990895
-989896
-988897
-988896
-987897
-986897
-985898
-985897
-984898
-983899
-983898
-1894
-894
106
1106
2106
3106
4105
4106
5105
6105
7105
8105
9104
9105
10104
11103
11104
12103
13103
14102
14103
15102
16101
16102
998106
999106
1.00011e+06
1.00111e+06
1.00211e+06
1.00311e+06
1.0041e+06
1.00411e+06
1.0051e+06
1.0061e+06
1.0071e+06
1.0081e+06
1.0091e+06
1.0091e+06
1.0101e+06
1.0111e+06
1.0111e+06
1.0121e+06
1.0131e+06
1.0141e+06
1.0141e+06
1.0151e+06
1.0161e+06
1.0161e+06
1.99811e+06
1.99911e+06
2.00011e+06
2.00111e+06
2.00211e+06
2.00311e+06
2.0041e+06
2.00411e+06
2.0051e+06
2.0061e+06
2.0071e+06
2.0081e+06
2.0091e+06
2.0091e+06
2.0101e+06
2.0111e+06
2.0111e+06
2.0121e+06
2.0131e+06
2.0141e+06
2.0141e+06
2.0151e+06
2.0161e+06
2.0161e+06
-984898
-983899
-983898
-982900
-982899
-981900
-980901
-980900
-979902
-979901
-978903
-978902
-977904
-977903
-976905
-976904
-975905
15102
16101
16102
17100
17101
18100
19099
19100
20098
20099
21097
21098
22096
22097
23095
23096
24095
1.0151e+06
1.0161e+06
1.0161e+06
1.0171e+06
1.0171e+06
1.0181e+06
1.0191e+06
1.0191e+06
1.0201e+06
1.0201e+06
1.0211e+06
1.0211e+06
1.0221e+06
1.0221e+06
1.0231e+06
1.0231e+06
1.0241e+06
2.0151e+06
2.0161e+06
2.0161e+06
2.0171e+06
2.0171e+06
2.0181e+06
2.0191e+06
2.0191e+06
2.0201e+06
2.0201e+06
2.0211e+06
2.0211e+06
2.0221e+06
2.0221e+06
2.0231e+06
2.0231e+06
2.0241e+06
