# vtk DataFile Version 2.0
Reconstructed linear interface
ASCII
DATASET POLYDATA
POINTS 4176 float
0.625 0.288401 -0.0078125
0.625 0.288401 0
0.617188 0.288848 0
0.617188 0.288848 -0.0078125
0.625 0.288359 -0.0078125
0.625 0.288359 0
0.632812 0.288563 0
0.632812 0.288563 -0.0078125
0.60252 0.296875 0
0.609375 0.289332 0
0.609375 0.289332 -0.0078125
0.60252 0.296875 -0.0078125
0.609375 0.290424 0
0.612718 0.289062 0
0.612718 0.289062 -0.0078125
0.609375 0.290424 -0.0078125
0.603504 0.304688 -0.0078125
0.603504 0.304688 0
0.60247 0.296875 0
0.60247 0.296875 -0.0078125
0.604201 0.304688 -0.0078125
0.609375 0.310466 -0.0078125
0.609375 0.310466 0
0.604201 0.304688 0
0.609375 0.309224 0
0.613969 0.3125 0
0.613969 0.3125 -0.0078125
0.609375 0.309224 -0.0078125
0.617188 0.315108 0
0.612994 0.3125 0
0.612994 0.3125 -0.0078125
0.617188 0.315108 -0.0078125
0.625 0.318097 -0.0078125
0.625 0.318097 0
0.617188 0.314543 0
0.617188 0.314543 -0.0078125
0.625 0.317885 0
0.63168 0.320312 0
0.63168 0.320312 -0.0078125
0.625 0.317885 -0.0078125
0.632812 0.320946 0
0.631071 0.320312 0
0.631071 0.320312 -0.0078125
0.632812 0.320946 -0.0078125
0.625 0.288401 0
0.625 0.288401 0.0078125
0.617188 0.288848 0.0078125
0.617188 0.288848 0
0.625 0.288359 0
0.625 0.288359 0.0078125
0.632812 0.288563 0.0078125
0.632812 0.288563 0
0.60252 0.296875 0.0078125
0.609375 0.289332 0.0078125
0.609375 0.289332 0
0.60252 0.296875 0
0.609375 0.290424 0.0078125
0.612718 0.289062 0.0078125
0.612718 0.289062 0
0.609375 0.290424 0
0.603504 0.304688 0
0.603504 0.304688 0.0078125
0.60247 0.296875 0.0078125
0.60247 0.296875 0
0.604201 0.304688 0
0.609375 0.310466 0
0.609375 0.310466 0.0078125
0.604201 0.304688 0.0078125
0.609375 0.309224 0.0078125
0.613969 0.3125 0.0078125
0.613969 0.3125 0
0.609375 0.309224 0
0.617188 0.315108 0.0078125
0.612994 0.3125 0.0078125
0.612994 0.3125 0
0.617188 0.315108 0
0.625 0.318097 0
0.625 0.318097 0.0078125
0.617188 0.314543 0.0078125
0.617188 0.314543 0
0.625 0.317885 0.0078125
0.63168 0.320312 0.0078125
0.63168 0.320312 0
0.625 0.317885 0
0.632812 0.320946 0.0078125
0.631071 0.320312 0.0078125
0.631071 0.320312 0
0.632812 0.320946 0
0.625 0.288401 0.0078125
0.625 0.288401 0.015625
0.617188 0.288848 0.015625
0.617188 0.288848 0.0078125
0.625 0.288359 0.0078125
0.625 0.288359 0.015625
0.632812 0.288563 0.015625
0.632812 0.288563 0.0078125
0.60252 0.296875 0.015625
0.609375 0.289332 0.015625
0.609375 0.289332 0.0078125
0.60252 0.296875 0.0078125
0.609375 0.290424 0.015625
0.612718 0.289062 0.015625
0.612718 0.289062 0.0078125
0.609375 0.290424 0.0078125
0.603504 0.304688 0.0078125
0.603504 0.304688 0.015625
0.60247 0.296875 0.015625
0.60247 0.296875 0.0078125
0.604201 0.304688 0.0078125
0.609375 0.310466 0.0078125
0.609375 0.310466 0.015625
0.604201 0.304688 0.015625
0.609375 0.309224 0.015625
0.613969 0.3125 0.015625
0.613969 0.3125 0.0078125
0.609375 0.309224 0.0078125
0.617188 0.315108 0.015625
0.612994 0.3125 0.015625
0.612994 0.3125 0.0078125
0.617188 0.315108 0.0078125
0.625 0.318097 0.0078125
0.625 0.318097 0.015625
0.617188 0.314543 0.015625
0.617188 0.314543 0.0078125
0.625 0.317885 0.015625
0.63168 0.320312 0.015625
0.63168 0.320312 0.0078125
0.625 0.317885 0.0078125
0.632812 0.320946 0.015625
0.631071 0.320312 0.015625
0.631071 0.320312 0.0078125
0.632812 0.320946 0.0078125
0.625 0.288401 0.015625
0.625 0.288401 0.0234375
0.617188 0.288848 0.0234375
0.617188 0.288848 0.015625
0.625 0.288359 0.015625
0.625 0.288359 0.0234375
0.632812 0.288563 0.0234375
0.632812 0.288563 0.015625
0.60252 0.296875 0.0234375
0.609375 0.289332 0.0234375
0.609375 0.289332 0.015625
0.60252 0.296875 0.015625
0.609375 0.290424 0.0234375
0.612718 0.289062 0.0234375
0.612718 0.289062 0.015625
0.609375 0.290424 0.015625
0.603504 0.304688 0.015625
0.603504 0.304688 0.0234375
0.60247 0.296875 0.0234375
0.60247 0.296875 0.015625
0.604201 0.304688 0.015625
0.609375 0.310466 0.015625
0.609375 0.310466 0.0234375
0.604201 0.304688 0.0234375
0.609375 0.309224 0.0234375
0.613969 0.3125 0.0234375
0.613969 0.3125 0.015625
0.609375 0.309224 0.015625
0.617188 0.315108 0.0234375
0.612994 0.3125 0.0234375
0.612994 0.3125 0.015625
0.617188 0.315108 0.015625
0.625 0.318097 0.015625
0.625 0.318097 0.0234375
0.617188 0.314543 0.0234375
0.617188 0.314543 0.015625
0.625 0.317885 0.0234375
0.63168 0.320312 0.0234375
0.63168 0.320312 0.015625
0.625 0.317885 0.015625
0.632812 0.320946 0.0234375
0.631071 0.320312 0.0234375
0.631071 0.320312 0.015625
0.632812 0.320946 0.015625
0.625 0.288401 -0.0078125
0.625 0.288401 0
0.617188 0.288848 0
0.617188 0.288848 -0.0078125
0.625 0.288359 -0.0078125
0.625 0.288359 0
0.632812 0.288563 0
0.632812 0.288563 -0.0078125
0.632812 0.288615 0
0.637029 0.289062 0
0.637029 0.289062 -0.0078125
0.632812 0.288615 -0.0078125
0.640625 0.28945 0
0.636972 0.289062 0
0.636972 0.289062 -0.0078125
0.640625 0.28945 -0.0078125
0.648438 0.290778 -0.0078125
0.648438 0.290778 0
0.640625 0.289456 0
0.640625 0.289456 -0.0078125
0.65625 0.292551 -0.0078125
0.65625 0.292551 0
0.648438 0.290803 0
0.648438 0.290803 -0.0078125
0.65625 0.29258 -0.0078125
0.65625 0.29258 0
0.664062 0.294648 0
0.664062 0.294648 -0.0078125
0.664062 0.294715 0
0.671739 0.296875 0
0.671739 0.296875 -0.0078125
0.664062 0.294715 -0.0078125
0.671875 0.296898 0
0.671792 0.296875 0
0.671792 0.296875 -0.0078125
0.671875 0.296898 -0.0078125
0.679688 0.299155 0
0.671909 0.296875 0
0.671909 0.296875 -0.0078125
0.679688 0.299155 -0.0078125
0.6875 0.301609 -0.0078125
0.6875 0.301609 0
0.679688 0.29918 0
0.679688 0.29918 -0.0078125
0.6875 0.301649 -0.0078125
0.6875 0.301649 0
0.695312 0.304089 0
0.695312 0.304089 -0.0078125
0.695312 0.304107 0
0.697222 0.304688 0
0.697222 0.304688 -0.0078125
0.695312 0.304107 -0.0078125
0.703125 0.306455 0
0.697316 0.304688 0
0.697316 0.304688 -0.0078125
0.703125 0.306455 -0.0078125
0.710938 0.308776 -0.0078125
0.710938 0.308776 0
0.703125 0.306469 0
0.703125 0.306469 -0.0078125
0.710938 0.308815 -0.0078125
0.710938 0.308815 0
0.71875 0.310962 0
0.71875 0.310962 -0.0078125
0.71875 0.310953 0
0.725041 0.3125 0
0.725041 0.3125 -0.0078125
0.71875 0.310953 -0.0078125
0.625 0.318097 -0.0078125
0.625 0.318097 0
0.617188 0.314543 0
0.617188 0.314543 -0.0078125
0.625 0.317885 0
0.63168 0.320312 0
0.63168 0.320312 -0.0078125
0.625 0.317885 -0.0078125
0.726562 0.312893 0
0.724963 0.3125 0
0.724963 0.3125 -0.0078125
0.726562 0.312893 -0.0078125
0.734375 0.314528 -0.0078125
0.734375 0.314528 0
0.726562 0.312934 0
0.726562 0.312934 -0.0078125
0.742188 0.315686 0
0.742188 0.315686 -0.0078125
0.734375 0.314527 -0.0078125
0.734375 0.314527 0
0.75 0.316426 0
0.75 0.316426 -0.0078125
0.742188 0.315672 -0.0078125
0.742188 0.315672 0
0.75 0.316412 -0.0078125
0.75 0.316412 0
0.757812 0.316816 0
0.757812 0.316816 -0.0078125
0.632812 0.320946 0
0.631071 0.320312 0
0.631071 0.320312 -0.0078125
0.632812 0.320946 -0.0078125
0.640625 0.323164 -0.0078125
0.640625 0.323164 0
0.632812 0.320833 0
0.632812 0.320833 -0.0078125
0.648438 0.324992 0
0.648438 0.324992 -0.0078125
0.640625 0.323019 -0.0078125
0.640625 0.323019 0
0.648438 0.325037 -0.0078125
0.648438 0.325037 0
0.65625 0.32685 0
0.65625 0.32685 -0.0078125
0.65625 0.326841 0
0.662648 0.328125 0
0.662648 0.328125 -0.0078125
0.65625 0.326841 -0.0078125
0.664062 0.328448 0
0.662456 0.328125 0
0.662456 0.328125 -0.0078125
0.664062 0.328448 -0.0078125
0.671875 0.329742 -0.0078125
0.671875 0.329742 0
0.664062 0.328418 0
0.664062 0.328418 -0.0078125
0.679688 0.330848 -0.0078125
0.679688 0.330848 0
0.671875 0.32971 0
0.671875 0.32971 -0.0078125
0.6875 0.331858 -0.0078125
0.6875 0.331858 0
0.679688 0.330854 0
0.679688 0.330854 -0.0078125
0.6875 0.331848 0
0.6875 0.331848 -0.0078125
0.695312 0.332727 -0.0078125
0.695312 0.332727 0
0.695312 0.332721 -0.0078125
0.695312 0.332721 0
0.703125 0.333507 0
0.703125 0.333507 -0.0078125
0.703125 0.333503 -0.0078125
0.703125 0.333503 0
0.710938 0.334218 0
0.710938 0.334218 -0.0078125
0.710938 0.334217 0
0.710938 0.334217 -0.0078125
0.71875 0.33487 -0.0078125
0.71875 0.33487 0
0.71875 0.334875 -0.0078125
0.71875 0.334875 0
0.726562 0.33546 0
0.726562 0.33546 -0.0078125
0.726562 0.335473 0
0.734135 0.335938 0
0.734135 0.335938 -0.0078125
0.726562 0.335473 -0.0078125
0.734375 0.335957 0
0.734061 0.335938 0
0.734061 0.335938 -0.0078125
0.734375 0.335957 -0.0078125
0.742188 0.336291 -0.0078125
0.742188 0.336291 0
0.734375 0.33596 0
0.734375 0.33596 -0.0078125
0.75 0.336468 -0.0078125
0.75 0.336468 0
0.742188 0.33628 0
0.742188 0.33628 -0.0078125
0.757812 0.336534 -0.0078125
0.757812 0.336534 0
0.75 0.336467 0
0.75 0.336467 -0.0078125
0.625 0.288401 0
0.625 0.288401 0.0078125
0.617188 0.288848 0.0078125
0.617188 0.288848 0
0.625 0.288359 0
0.625 0.288359 0.0078125
0.632812 0.288563 0.0078125
0.632812 0.288563 0
0.632812 0.288615 0.0078125
0.637029 0.289062 0.0078125
0.637029 0.289062 0
0.632812 0.288615 0
0.640625 0.28945 0.0078125
0.636972 0.289062 0.0078125
0.636972 0.289062 0
0.640625 0.28945 0
0.648438 0.290778 0
0.648438 0.290778 0.0078125
0.640625 0.289456 0.0078125
0.640625 0.289456 0
0.65625 0.292551 0
0.65625 0.292551 0.0078125
0.648438 0.290803 0.0078125
0.648438 0.290803 0
0.65625 0.29258 0
0.65625 0.29258 0.0078125
0.664062 0.294648 0.0078125
0.664062 0.294648 0
0.664062 0.294715 0.0078125
0.671739 0.296875 0.0078125
0.671739 0.296875 0
0.664062 0.294715 0
0.671875 0.296898 0.0078125
0.671792 0.296875 0.0078125
0.671792 0.296875 0
0.671875 0.296898 0
0.679688 0.299155 0.0078125
0.671909 0.296875 0.0078125
0.671909 0.296875 0
0.679688 0.299155 0
0.6875 0.301609 0
0.6875 0.301609 0.0078125
0.679688 0.29918 0.0078125
0.679688 0.29918 0
0.6875 0.301649 0
0.6875 0.301649 0.0078125
0.695312 0.304089 0.0078125
0.695312 0.304089 0
0.695312 0.304107 0.0078125
0.697222 0.304688 0.0078125
0.697222 0.304688 0
0.695312 0.304107 0
0.703125 0.306455 0.0078125
0.697316 0.304688 0.0078125
0.697316 0.304688 0
0.703125 0.306455 0
0.710938 0.308776 0
0.710938 0.308776 0.0078125
0.703125 0.306469 0.0078125
[...]
CELL_DATA 1044
SCALARS c float
LOOKUP_TABLE default
-963921
-963920
-962923
-962922
-961923
-960923
-960922
-959922
-959921
-959920
-958920
36079
36080
37077
37078
38077
39077
39078
40078
40079
40080
41080
1.03608e+06
1.03608e+06
1.03708e+06
1.03708e+06
1.03808e+06
1.03908e+06
1.03908e+06
1.04008e+06
1.04008e+06
1.04008e+06
1.04108e+06
2.03608e+06
2.03608e+06
2.03708e+06
2.03708e+06
2.03808e+06
2.03908e+06
2.03908e+06
2.04008e+06
2.04008e+06
2.04008e+06
2.04108e+06
-963921
-963920
-963919
-962919
-962918
-962917
-962916
-962915
-961915
-961914
-961913
-961912
-961911
-960911
-960910
-960909
-960908
-959921
-959920
-959908
-959907
-959906
-959905
-959904
-958920
-958919
-958918
-958917
-958916
-957916
-957915
-957914
-957913
-957912
-957911
-957910
-957909
-957908
-957907
-956907
-956906
-956905
-956904
36079
36080
36081
37081
37082
37083
37084
37085
38085
38086
38087
38088
38089
39089
39090
39091
39092
40079
40080
40092
40093
40094
40095
40096
41080
41081
41082
41083
41084
42084
42085
42086
42087
42088
42089
42090
42091
42092
42093
43093
43094
43095
43096
1.03608e+06
1.03608e+06
1.03608e+06
1.03708e+06
1.03708e+06
1.03708e+06
1.03708e+06
1.03708e+06
1.03808e+06
1.03809e+06
1.03809e+06
1.03809e+06
1.03809e+06
1.03909e+06
1.03909e+06
1.03909e+06
1.03909e+06
1.04008e+06
1.04008e+06
1.04009e+06
1.04009e+06
1.04009e+06
1.0401e+06
1.0401e+06
1.04108e+06
1.04108e+06
1.04108e+06
1.04108e+06
1.04108e+06
1.04208e+06
1.04208e+06
1.04209e+06
1.04209e+06
1.04209e+06
1.04209e+06
1.04209e+06
1.04209e+06
1.04209e+06
1.04209e+06
1.04309e+06
1.04309e+06
1.0431e+06
1.0431e+06
2.03608e+06
2.03608e+06
2.03608e+06
2.03708e+06
2.03708e+06
2.03708e+06
2.03708e+06
2.03708e+06
2.03808e+06
2.03809e+06
2.03809e+06
2.03809e+06
2.03809e+06
2.03909e+06
2.03909e+06
2.03909e+06
2.03909e+06
2.04008e+06
2.04008e+06
2.04009e+06
2.04009e+06
2.04009e+06
2.0401e+06
2.0401e+06
2.04108e+06
2.04108e+06
2.04108e+06
2.04108e+06
2.04108e+06
2.04208e+06
2.04208e+06
2.04209e+06
2.04209e+06
2.04209e+06
2.04209e+06
2.04209e+06
2.04209e+06
2.04209e+06
2.04209e+06
2.04309e+06
2.04309e+06
2.0431e+06
2.0431e+06
-985888
-984888
-983888
14112
15112
16112
1.01411e+06
1.01511e+06
1.01611e+06
2.01411e+06
2.01511e+06
2.01611e+06
-984888
-983888
-982888
-981888
-980888
-979888
-978889
-978888
-977889
-976889
-975889
-974889
-973889
-972890
-972889
-971890
-970890
-969890
-968891
-968890
-967891
15112
16112
17112
18112
19112
20112
21111
21112
22111
23111
24111
25111
26111
27110
27111
28110
29110
30110
31109
31110
32109
1.01511e+06
1.01611e+06
1.01711e+06
1.01811e+06
1.01911e+06
1.02011e+06
1.02111e+06
1.02111e+06
1.02211e+06
1.02311e+06
1.02411e+06
1.02511e+06
1.02611e+06
1.02711e+06
1.02711e+06
1.02811e+06
1.02911e+06
1.03011e+06
1.03111e+06
1.03111e+06
1.03211e+06
2.01511e+06
2.01611e+06
2.01711e+06
2.01811e+06
2.01911e+06
2.02011e+06
2.02111e+06
2.02111e+06
2.02211e+06
2.02311e+06
2.02411e+06
2.02511e+06
2.02611e+06
2.02711e+06
2.02711e+06
2.02811e+06
2.02911e+06
2.03011e+06
2.03111e+06
2.03111e+06
2.03211e+06
-968891
-968890
-967891
-966891
-965892
-965891
-964892
-963893
-963892
-962894
-962893
-961895
-961894
-960897
-960896
-960895
-959905
-959904
-959903
-959902
-959901
-959900
-959899
-959898
-959897
-957899
-957898
-957897
-957896
-957895
-957894
-957893
-957892
-957891
-957890
-957889
-957888
-956905
-956904
-956903
-956902
-956901
-956900
-956899
31109
31110
32109
33109
34108
34109
35108
36107
36108
37106
37107
38105
38106
39103
39104
39105
40095
40096
40097
40098
40099
40100
40101
40102
40103
42101
42102
42103
42104
42105
42106
42107
42108
42109
42110
42111
42112
43095
43096
43097
43098
43099
43100
43101
1.03111e+06
1.03111e+06
1.03211e+06
1.03311e+06
1.03411e+06
1.03411e+06
1.03511e+06
1.03611e+06
1.03611e+06
1.03711e+06
1.03711e+06
1.0381e+06
1.03811e+06
1.0391e+06
1.0391e+06
1.0391e+06
1.0401e+06
1.0401e+06
1.0401e+06
1.0401e+06
1.0401e+06
1.0401e+06
1.0401e+06
1.0401e+06
1.0401e+06
1.0421e+06
1.0421e+06
1.0421e+06
1.0421e+06
1.0421e+06
1.04211e+06
1.04211e+06
1.04211e+06
1.04211e+06
1.04211e+06
1.04211e+06
1.04211e+06
1.0431e+06
1.0431e+06
1.0431e+06
1.0431e+06
1.0431e+06
1.0431e+06
1.0431e+06
2.03111e+06
2.03111e+06
2.03211e+06
2.03311e+06
2.03411e+06
2.03411e+06
2.03511e+06
2.03611e+06
2.03611e+06
2.03711e+06
2.03711e+06
2.0381e+06
2.03811e+06
2.0391e+06
2.0391e+06
2.0391e+06
2.0401e+06
2.0401e+06
2.0401e+06
2.0401e+06
2.0401e+06
2.0401e+06
2.0401e+06
2.0401e+06
2.0401e+06
2.0421e+06
2.0421e+06
2.0421e+06
2.0421e+06
2.0421e+06
2.04211e+06
2.04211e+06
2.04211e+06
2.04211e+06
2.04211e+06
2.04211e+06
2.04211e+06
2.0431e+06
2.0431e+06
2.0431e+06
2.0431e+06
2.0431e+06
2.0431e+06
2.0431e+06
-1.00189e+06
-1.00089e+06
-999887
-998887
-997887
-996887
-995887
-994887
-993887
-992887
-991887
-990887
-989887
-988887
-987887
-986887
-985888
-985887
-984888
-983888
-1887
-887
113
1113
2113
3113
4113
5113
6113
7113
8113
9113
10113
11113
12113
13113
14112
14113
15112
16112
998113
999113
1.00011e+06
1.00111e+06
1.00211e+06
1.00311e+06
1.00411e+06
1.00511e+06
1.00611e+06
1.00711e+06
1.00811e+06
1.00911e+06
1.01011e+06
1.01111e+06
1.01211e+06
1.01311e+06
1.01411e+06
1.01411e+06
1.01511e+06
1.01611e+06
1.99811e+06
1.99911e+06
2.00011e+06
2.00111e+06
2.00211e+06
2.00311e+06
2.00411e+06
2.00511e+06
2.00611e+06
2.00711e+06
2.00811e+06
2.00911e+06
2.01011e+06
2.01111e+06
2.01211e+06
2.01311e+06
2.01411e+06
2.01411e+06
2.01511e+06
2.01611e+06
-984888
-983888
-982888
-981888
-980888
-979888
-978889
-978888
-977889
-976889
-975889
-974889
-973889
-972889
15112
16112
17112
18112
19112
20112
21111
21112
22111
23111
24111
25111
26111
27111
1.01511e+06
1.01611e+06
1.01711e+06
1.01811e+06
1.01911e+06
1.02011e+06
1.02111e+06
1.02111e+06
1.02211e+06
1.02311e+06
1.02411e+06
1.02511e+06
1.02611e+06
1.02711e+06
2.01511e+06
2.01611e+06
2.01711e+06
2.01811e+06
2.01911e+06
2.02011e+06
2.02111e+06
2.02111e+06
2.02211e+06
2.02311e+06
2.02411e+06
2.02511e+06
2.02611e+06
2.02711e+06
-961873
-961872
-960876
-960875
-960874
-960873
-959879
-959878
-959877
-959876
-958884
-958883
-958882
-958881
-958880
-958879
-957889
-957888
-957887
-957886
-957885
-957884
38127
38128
39124
39125
39126
39127
40121
40122
40123
40124
41116
41117
41118
41119
41120
41121
42111
42112
42113
42114
42115
42116
1.03813e+06
1.03813e+06
1.03912e+06
1.03912e+06
1.03913e+06
1.03913e+06
1.04012e+06
1.04012e+06
1.04012e+06
1.04012e+06
1.04112e+06
1.04112e+06
1.04112e+06
1.04112e+06
1.04112e+06
1.04112e+06
1.04211e+06
1.04211e+06
1.04211e+06
1.04211e+06
1.04212e+06
1.04212e+06
2.03813e+06
2.03813e+06
2.03912e+06
2.03912e+06
2.03913e+06
2.03913e+06
2.04012e+06
2.04012e+06
2.04012e+06
2.04012e+06
2.04112e+06
2.04112e+06
2.04112e+06
2.04112e+06
2.04112e+06
2.04112e+06
2.04211e+06
2.04211e+06
2.04211e+06
2.04211e+06
2.04212e+06
2.04212e+06
-971856
-970857
-970856
-969859
-969858
-969857
-968860
-968859
-967861
-967860
28144
29143
29144
30141
30142
30143
31140
31141
32139
32140
1.02814e+06
1.02914e+06
1.02914e+06
1.03014e+06
1.03014e+06
1.03014e+06
1.03114e+06
1.03114e+06
1.03214e+06
1.03214e+06
2.02814e+06
2.02914e+06
2.02914e+06
2.03014e+06
2.03014e+06
2.03014e+06
2.03114e+06
2.03114e+06
2.03214e+06
2.03214e+06
-968860
-968859
-967861
-967860
-966863
-966862
-966861
-965864
-965863
-964866
-964865
-964864
-963868
-963867
-963866
-962870
-962869
-962868
-961873
-961872
-961871
-961870
-960873
31140
31141
32139
32140
33137
33138
33139
34136
34137
35134
35135
35136
36132
36133
36134
37130
37131
37132
38127
38128
38129
38130
39127
1.03114e+06
1.03114e+06
1.03214e+06
1.03214e+06
1.03314e+06
1.03314e+06
1.03314e+06
1.03414e+06
1.03414e+06
1.03513e+06
1.03514e+06
1.03514e+06
1.03613e+06
1.03613e+06
1.03613e+06
1.03713e+06
1.03713e+06
1.03713e+06
1.03813e+06
1.03813e+06
1.03813e+06
1.03813e+06
1.03913e+06
2.03114e+06
2.03114e+06
2.03214e+06
2.03214e+06
2.03314e+06
2.03314e+06
2.03314e+06
2.03414e+06
2.03414e+06
2.03513e+06
2.03514e+06
2.03514e+06
2.03613e+06
2.03613e+06
2.03613e+06
2.03713e+06
2.03713e+06
2.03713e+06
2.03813e+06
2.03813e+06
2.03813e+06
2.03813e+06
2.03913e+06
-1.00184e+06
-1.00084e+06
-999843
-998843
-997843
-996843
-995843
-994844
-994843
-993844
-992844
-991844
-990844
-989845
-989844
-988845
-987845
-986846
-986845
-985846
-984847
-984846
-983847
-1843
-843
157
1157
2157
3157
4157
5156
5157
6156
7156
8156
9156
10155
10156
11155
12155
13154
13155
14154
15153
15154
16153
998157
999157
1.00016e+06
1.00116e+06
1.00216e+06
1.00316e+06
1.00416e+06
1.00516e+06
1.00516e+06
1.00616e+06
1.00716e+06
1.00816e+06
1.00916e+06
1.01016e+06
1.01016e+06
1.01116e+06
1.01216e+06
1.01315e+06
1.01316e+06
1.01415e+06
1.01515e+06
1.01515e+06
1.01615e+06
1.99816e+06
1.99916e+06
2.00016e+06
2.00116e+06
2.00216e+06
2.00316e+06
2.00416e+06
2.00516e+06
2.00516e+06
2.00616e+06
2.00716e+06
2.00816e+06
2.00916e+06
2.01016e+06
2.01016e+06
2.01116e+06
2.01216e+06
2.01315e+06
2.01316e+06
2.01415e+06
2.01515e+06
2.01515e+06
2.01615e+06
-984847
-984846
-983847
-982848
-982847
-981848
-980849
-980848
-979850
-979849
-978850
-977851
-977850
-976852
-976851
-975852
-974853
-974852
-973854
-973853
-972855
-972854
-971856
-971855
-970857
-970856
-969857
15153
15154
16153
17152
17153
18152
19151
19152
20150
20151
21150
22149
22150
23148
23149
24148
25147
25148
26146
26147
27145
27146
28144
28145
29143
29144
30143
1.01515e+06
1.01515e+06
1.01615e+06
1.01715e+06
1.01715e+06
1.01815e+06
1.01915e+06
1.01915e+06
1.02015e+06
1.02015e+06
1.02115e+06
1.02215e+06
1.02215e+06
1.02315e+06
1.02315e+06
1.02415e+06
1.02515e+06
1.02515e+06
1.02615e+06
1.02615e+06
1.02714e+06
1.02715e+06
1.02814e+06
1.02814e+06
1.02914e+06
1.02914e+06
1.03014e+06
2.01515e+06
2.01515e+06
2.01615e+06
2.01715e+06
2.01715e+06
2.01815e+06
2.01915e+06
2.01915e+06
2.02015e+06
2.02015e+06
2.02115e+06
2.02215e+06
2.02215e+06
2.02315e+06
2.02315e+06
2.02415e+06
2.02515e+06
2.02515e+06
2.02615e+06
2.02615e+06
2.02714e+06
2.02715e+06
2.02814e+06
2.02814e+06
2.02914e+06
2.02914e+06
2.03014e+06
