<?xml version="1.0"?>
<VTKFile type="StructuredGrid" version="0.1" byte_order="LittleEndian">
  <StructuredGrid WholeExtent="0 8 0 8 0 8">
    <Piece Extent="0 8 0 8 0 8">
      <PointData>
      </PointData>
      <CellData>
        <DataArray Name="vx" NumberOfComponents="1" type="Float32" format="ascii">
0.98865240446527846707 0.98865240446527846707 0.98865240446527846707 0.98865240446527846707 0.98865240446527846707 0.98865240446527846707 0.98865240446527846707 0.98865240446527846707 0.9663921657585740066 0.9663921657585740066 0.9663921657585740066 0.9663921657585740066 0.9663921657585740066 0.9663921657585740066 0.9663921657585740066 0.9663921657585740066 0.9454236917712710575 0.9454236917712710575 0.9454236917712710575 0.9454236917712710575 0.9454236917712710575 0.9454236917712710575 0.9454236917712710575 0.9454236917712710575 0.92655283108743813347 0.92655283108743813347 0.92655283108743813347 0.92655283108743813347 0.92655283108743813347 0.92655283108743813347 0.92655283108743813347 0.92655283108743813347 0.91050506713331746944 0.91050506713331746944 0.91050506713331746944 0.91050506713331746944 0.91050506713331746944 0.91050506713331746944 0.91050506713331746944 0.91050506713331746944 0.89789546760375016365 0.89789546760375016365 0.89789546760375016365 0.89789546760375016365 0.89789546760375016365 0.89789546760375016365 0.89789546760375016365 0.89789546760375016365 0.88921017376706912305 0.88921017376706912305 0.88921017376706912305 0.88921017376706912305 0.88921017376706912305 0.88921017376706912305 0.88921017376706912305 0.88921017376706912305 0.88478292983158512985 0.88478292983158512985 0.88478292983158512985 0.88478292983158512985 0.88478292983158512985 0.88478292983158512985 0.88478292983158512985 0.88478292983158512985 0.98865240446527846707 0.98865240446527846707 0.98865240446527846707 0.98865240446527846707 0.98865240446527846707 0.98865240446527846707 0.98865240446527846707 0.98865240446527846707 0.9663921657585740066 0.9663921657585740066 0.9663921657585740066 0.9663921657585740066 0.9663921657585740066 0.9663921657585740066 0.9663921657585740066 0.9663921657585740066 0.9454236917712710575 0.9454236917712710575 0.9454236917712710575 0.9454236917712710575 0.9454236917712710575 0.9454236917712710575 0.9454236917712710575 0.9454236917712710575 0.92655283108743813347 0.92655283108743813347 0.92655283108743813347 0.92655283108743813347 0.92655283108743813347 0.92655283108743813347 0.92655283108743813347 0.92655283108743813347 0.91050506713331746944 0.91050506713331746944 0.91050506713331746944 0.91050506713331746944 0.91050506713331746944 0.91050506713331746944 0.91050506713331746944 0.91050506713331746944 0.89789546760375016365 0.89789546760375016365 0.89789546760375016365 0.89789546760375016365 0.89789546760375016365 0.89789546760375016365 0.89789546760375016365 0.89789546760375016365 0.88921017376706912305 0.88921017376706912305 0.88921017376706912305 0.88921017376706912305 0.88921017376706912305 0.88921017376706912305 0.88921017376706912305 0.88921017376706912305 0.88478292983158512985 0.88478292983158512985 0.88478292983158512985 0.88478292983158512985 0.88478292983158512985 0.88478292983158512985 0.88478292983158512985 0.88478292983158512985 0.98865240446527846707 0.98865240446527846707 0.98865240446527846707 0.98865240446527846707 0.98865240446527846707 0.98865240446527846707 0.98865240446527846707 0.98865240446527846707 0.9663921657585740066 0.9663921657585740066 0.9663921657585740066 0.9663921657585740066 0.9663921657585740066 0.9663921657585740066 0.9663921657585740066 0.9663921657585740066 0.9454236917712710575 0.9454236917712710575 0.9454236917712710575 0.9454236917712710575 0.9454236917712710575 0.9454236917712710575 0.9454236917712710575 0.9454236917712710575 0.92655283108743813347 0.92655283108743813347 0.92655283108743813347 0.92655283108743813347 0.92655283108743813347 0.92655283108743813347 0.92655283108743813347 0.92655283108743813347 0.91050506713331746944 0.91050506713331746944 0.91050506713331746944 0.91050506713331746944 0.91050506713331746944 0.91050506713331746944 0.91050506713331746944 0.91050506713331746944 0.89789546760375016365 0.89789546760375016365 0.89789546760375016365 0.89789546760375016365 0.89789546760375016365 0.89789546760375016365 0.89789546760375016365 0.89789546760375016365 0.88921017376706912305 0.88921017376706912305 0.88921017376706912305 0.88921017376706912305 0.88921017376706912305 0.88921017376706912305 0.88921017376706912305 0.88921017376706912305 0.88478292983158512985 0.88478292983158512985 0.88478292983158512985 0.88478292983158512985 0.88478292983158512985 0.88478292983158512985 0.88478292983158512985 0.88478292983158512985 0.98865240446527846707 0.98865240446527846707 0.98865240446527846707 0.98865240446527846707 0.98865240446527846707 0.98865240446527846707 0.98865240446527846707 0.98865240446527846707 0.9663921657585740066 0.9663921657585740066 0.9663921657585740066 0.9663921657585740066 0.9663921657585740066 0.9663921657585740066 0.9663921657585740066 0.9663921657585740066 0.9454236917712710575 0.9454236917712710575 0.9454236917712710575 0.9454236917712710575 0.9454236917712710575 0.9454236917712710575 0.9454236917712710575 0.9454236917712710575 0.92655283108743813347 0.92655283108743813347 0.92655283108743813347 0.92655283108743813347 0.92655283108743813347 0.92655283108743813347 0.92655283108743813347 0.92655283108743813347 0.91050506713331746944 0.91050506713331746944 0.91050506713331746944 0.91050506713331746944 0.91050506713331746944 0.91050506713331746944 0.91050506713331746944 0.91050506713331746944 0.89789546760375016365 0.89789546760375016365 0.89789546760375016365 0.89789546760375016365 0.89789546760375016365 0.89789546760375016365 0.89789546760375016365 0.89789546760375016365 0.88921017376706912305 0.88921017376706912305 0.88921017376706912305 0.88921017376706912305 0.88921017376706912305 0.88921017376706912305 0.88921017376706912305 0.88921017376706912305 0.88478292983158512985 0.88478292983158512985 0.88478292983158512985 0.88478292983158512985 0.88478292983158512985 0.88478292983158512985 0.88478292983158512985 0.88478292983158512985 0.98865240446527846707 0.98865240446527846707 0.98865240446527846707 0.98865240446527846707 0.98865240446527846707 0.98865240446527846707 0.98865240446527846707 0.98865240446527846707 0.9663921657585740066 0.9663921657585740066 0.9663921657585740066 0.9663921657585740066 0.9663921657585740066 0.9663921657585740066 0.9663921657585740066 0.9663921657585740066 0.9454236917712710575 0.9454236917712710575 0.9454236917712710575 0.9454236917712710575 0.9454236917712710575 0.9454236917712710575 0.9454236917712710575 0.9454236917712710575 0.92655283108743813347 0.92655283108743813347 0.92655283108743813347 0.92655283108743813347 0.92655283108743813347 0.92655283108743813347 0.92655283108743813347 0.92655283108743813347 0.91050506713331746944 0.91050506713331746944 0.91050506713331746944 0.91050506713331746944 0.91050506713331746944 0.91050506713331746944 0.91050506713331746944 0.91050506713331746944 0.89789546760375016365 0.89789546760375016365 0.89789546760375016365 0.89789546760375016365 0.89789546760375016365 0.89789546760375016365 0.89789546760375016365 0.89789546760375016365 0.88921017376706912305 0.88921017376706912305 0.88921017376706912305 0.88921017376706912305 0.88921017376706912305 0.88921017376706912305 0.88921017376706912305 0.88921017376706912305 0.88478292983158512985 0.88478292983158512985 0.88478292983158512985 0.88478292983158512985 0.88478292983158512985 0.88478292983158512985 0.88478292983158512985 0.88478292983158512985 0.98865240446527846707 0.98865240446527846707 0.98865240446527846707 0.98865240446527846707 0.98865240446527846707 0.98865240446527846707 0.98865240446527846707 0.98865240446527846707 0.9663921657585740066 0.9663921657585740066 0.9663921657585740066 0.9663921657585740066 0.9663921657585740066 0.9663921657585740066 0.9663921657585740066 0.9663921657585740066 0.9454236917712710575 0.9454236917712710575 0.9454236917712710575 0.9454236917712710575 0.9454236917712710575 0.9454236917712710575 0.9454236917712710575 0.9454236917712710575 0.92655283108743813347 0.92655283108743813347 0.92655283108743813347 0.92655283108743813347 0.92655283108743813347 0.92655283108743813347 0.92655283108743813347 0.92655283108743813347 0.91050506713331746944 0.91050506713331746944 0.91050506713331746944 0.91050506713331746944 0.91050506713331746944 0.91050506713331746944 0.91050506713331746944 0.91050506713331746944 0.89789546760375016365 0.89789546760375016365 0.89789546760375016365 0.89789546760375016365 0.89789546760375016365 0.89789546760375016365 0.89789546760375016365 0.89789546760375016365 0.88921017376706912305 0.88921017376706912305 0.88921017376706912305 0.88921017376706912305 0.88921017376706912305 0.88921017376706912305 0.88921017376706912305 0.88921017376706912305 0.88478292983158512985 0.88478292983158512985 0.88478292983158512985 0.88478292983158512985 0.88478292983158512985 0.88478292983158512985 0.88478292983158512985 0.88478292983158512985 0.98865240446527846707 0.98865240446527846707 0.98865240446527846707 0.98865240446527846707 0.98865240446527846707 0.98865240446527846707 0.98865240446527846707 0.98865240446527846707 0.9663921657585740066 0.9663921657585740066 0.9663921657585740066 0.9663921657585740066 0.9663921657585740066 0.9663921657585740066 0.9663921657585740066 0.9663921657585740066 0.9454236917712710575 0.9454236917712710575 0.9454236917712710575 0.9454236917712710575 0.9454236917712710575 0.9454236917712710575 0.9454236917712710575 0.9454236917712710575 0.92655283108743813347 0.92655283108743813347 0.92655283108743813347 0.92655283108743813347 0.92655283108743813347 0.92655283108743813347 0.92655283108743813347 0.92655283108743813347 0.91050506713331746944 0.91050506713331746944 0.91050506713331746944 0.91050506713331746944 0.91050506713331746944 0.91050506713331746944 0.91050506713331746944 0.91050506713331746944 0.89789546760375016365 0.89789546760375016365 0.89789546760375016365 0.89789546760375016365 0.89789546760375016365 0.89789546760375016365 0.89789546760375016365 0.89789546760375016365 0.88921017376706912305 0.88921017376706912305 0.88921017376706912305 0.88921017376706912305 0.88921017376706912305 0.88921017376706912305 0.88921017376706912305 0.88921017376706912305 0.88478292983158512985 0.88478292983158512985 0.88478292983158512985 0.88478292983158512985 0.88478292983158512985 0.88478292983158512985 0.88478292983158512985 0.88478292983158512985 0.98865240446527846707 0.98865240446527846707 0.98865240446527846707 0.98865240446527846707 0.98865240446527846707 0.98865240446527846707 0.98865240446527846707 0.98865240446527846707 0.9663921657585740066 0.9663921657585740066 0.9663921657585740066 0.9663921657585740066 0.9663921657585740066 0.9663921657585740066 0.9663921657585740066 0.9663921657585740066 0.9454236917712710575 0.9454236917712710575 0.9454236917712710575 0.9454236917712710575 0.9454236917712710575 0.9454236917712710575 0.9454236917712710575 0.9454236917712710575 0.92655283108743813347 0.92655283108743813347 0.92655283108743813347 0.92655283108743813347 0.92655283108743813347 0.92655283108743813347 0.92655283108743813347 0.92655283108743813347 0.91050506713331746944 0.91050506713331746944 0.91050506713331746944 0.91050506713331746944 0.91050506713331746944 0.91050506713331746944 0.91050506713331746944 0.91050506713331746944 0.89789546760375016365 0.89789546760375016365 0.89789546760375016365 0.89789546760375016365 0.89789546760375016365 0.89789546760375016365 0.89789546760375016365 0.89789546760375016365 0.88921017376706912305 0.88921017376706912305 0.88921017376706912305 0.88921017376706912305 0.88921017376706912305 0.88921017376706912305 0.88921017376706912305 0.88921017376706912305 0.88478292983158512985 0.88478292983158512985 0.88478292983158512985 0.88478292983158512985 0.88478292983158512985 0.88478292983158512985 0.88478292983158512985 0.88478292983158512985 
        </DataArray>
      </CellData>
      <Points>
        <DataArray Name="m" NumberOfComponents="3" type="Float32" format="ascii">
0 0 0 0.125 0 0 0.25 0 0 0.375 0 0 0.5 0 0 0.625 0 0 0.75 0 0 0.875 0 0 1 0 0 0 0.125 0 0.125 0.125 0 0.25 0.125 0 0.375 0.125 0 0.5 0.125 0 0.625 0.125 0 0.75 0.125 0 0.875 0.125 0 1 0.125 0 0 0.25 0 0.125 0.25 0 0.25 0.25 0 0.375 0.25 0 0.5 0.25 0 0.625 0.25 0 0.75 0.25 0 0.875 0.25 0 1 0.25 0 0 0.375 0 0.125 0.375 0 0.25 0.375 0 0.375 0.375 0 0.5 0.375 0 0.625 0.375 0 0.75 0.375 0 0.875 0.375 0 1 0.375 0 0 0.5 0 0.125 0.5 0 0.25 0.5 0 0.375 0.5 0 0.5 0.5 0 0.625 0.5 0 0.75 0.5 0 0.875 0.5 0 1 0.5 0 0 0.625 0 0.125 0.625 0 0.25 0.625 0 0.375 0.625 0 0.5 0.625 0 0.625 0.625 0 0.75 0.625 0 0.875 0.625 0 1 0.625 0 0 0.75 0 0.125 0.75 0 0.25 0.75 0 0.375 0.75 0 0.5 0.75 0 0.625 0.75 0 0.75 0.75 0 0.875 0.75 0 1 0.75 0 0 0.875 0 0.125 0.875 0 0.25 0.875 0 0.375 0.875 0 0.5 0.875 0 0.625 0.875 0 0.75 0.875 0 0.875 0.875 0 1 0.875 0 0 1 0 0.125 1 0 0.25 1 0 0.375 1 0 0.5 1 0 0.625 1 0 0.75 1 0 0.875 1 0 1 1 0 0 0 0.125 0.125 0 0.125 0.25 0 0.125 0.375 0 0.125 0.5 0 0.125 0.625 0 0.125 0.75 0 0.125 0.875 0 0.125 1 0 0.125 0 0.125 0.125 0.125 0.125 0.125 0.25 0.125 0.125 0.375 0.125 0.125 0.5 0.125 0.125 0.625 0.125 0.125 0.75 0.125 0.125 0.875 0.125 0.125 1 0.125 0.125 0 0.25 0.125 0.125 0.25 0.125 0.25 0.25 0.125 0.375 0.25 0.125 0.5 0.25 0.125 0.625 0.25 0.125 0.75 0.25 0.125 0.875 0.25 0.125 1 0.25 0.125 0 0.375 0.125 0.125 0.375 0.125 0.25 0.375 0.125 0.375 0.375 0.125 0.5 0.375 0.125 0.625 0.375 0.125 0.75 0.375 0.125 0.875 0.375 0.125 1 0.375 0.125 0 0.5 0.125 0.125 0.5 0.125 0.25 0.5 0.125 0.375 0.5 0.125 0.5 0.5 0.125 0.625 0.5 0.125 0.75 0.5 0.125 0.875 0.5 0.125 1 0.5 0.125 0 0.625 0.125 0.125 0.625 0.125 0.25 0.625 0.125 0.375 0.625 0.125 0.5 0.625 0.125 0.625 0.625 0.125 0.75 0.625 0.125 0.875 0.625 0.125 1 0.625 0.125 0 0.75 0.125 0.125 0.75 0.125 0.25 0.75 0.125 0.375 0.75 0.125 0.5 0.75 0.125 0.625 0.75 0.125 0.75 0.75 0.125 0.875 0.75 0.125 1 0.75 0.125 0 0.875 0.125 0.125 0.875 0.125 0.25 0.875 0.125 0.375 0.875 0.125 0.5 0.875 0.125 0.625 0.875 0.125 0.75 0.875 0.125 0.875 0.875 0.125 1 0.875 0.125 0 1 0.125 0.125 1 0.125 0.25 1 0.125 0.375 1 0.125 0.5 1 0.125 0.625 1 0.125 0.75 1 0.125 0.875 1 0.125 1 1 0.125 0 0 0.25 0.125 0 0.25 0.25 0 0.25 0.375 0 0.25 0.5 0 0.25 0.625 0 0.25 0.75 0 0.25 0.875 0 0.25 1 0 0.25 0 0.125 0.25 0.125 0.125 0.25 0.25 0.125 0.25 0.375 0.125 0.25 0.5 0.125 0.25 0.625 0.125 0.25 0.75 0.125 0.25 0.875 0.125 0.25 1 0.125 0.25 0 0.25 0.25 0.125 0.25 0.25 0.25 0.25 0.25 0.375 0.25 0.25 0.5 0.25 0.25 0.625 0.25 0.25 0.75 0.25 0.25 0.875 0.25 0.25 1 0.25 0.25 0 0.375 0.25 0.125 0.375 0.25 0.25 0.375 0.25 0.375 0.375 0.25 0.5 0.375 0.25 0.625 0.375 0.25 0.75 0.375 0.25 0.875 0.375 0.25 1 0.375 0.25 0 0.5 0.25 0.125 0.5 0.25 0.25 0.5 0.25 0.375 0.5 0.25 0.5 0.5 0.25 0.625 0.5 0.25 0.75 0.5 0.25 0.875 0.5 0.25 1 0.5 0.25 0 0.625 0.25 0.125 0.625 0.25 0.25 0.625 0.25 0.375 0.625 0.25 0.5 0.625 0.25 0.625 0.625 0.25 0.75 0.625 0.25 0.875 0.625 0.25 1 0.625 0.25 0 0.75 0.25 0.125 0.75 0.25 0.25 0.75 0.25 0.375 0.75 0.25 0.5 0.75 0.25 0.625 0.75 0.25 0.75 0.75 0.25 0.875 0.75 0.25 1 0.75 0.25 0 0.875 0.25 0.125 0.875 0.25 0.25 0.875 0.25 0.375 0.875 0.25 0.5 0.875 0.25 0.625 0.875 0.25 0.75 0.875 0.25 0.875 0.875 0.25 1 0.875 0.25 0 1 0.25 0.125 1 0.25 0.25 1 0.25 0.375 1 0.25 0.5 1 0.25 0.625 1 0.25 0.75 1 0.25 0.875 1 0.25 1 1 0.25 0 0 0.375 0.125 0 0.375 0.25 0 0.375 0.375 0 0.375 0.5 0 0.375 0.625 0 0.375 0.75 0 0.375 0.875 0 0.375 1 0 0.375 0 0.125 0.375 0.125 0.125 0.375 0.25 0.125 0.375 0.375 0.125 0.375 0.5 0.125 0.375 0.625 0.125 0.375 0.75 0.125 0.375 0.875 0.125 0.375 1 0.125 0.375 0 0.25 0.375 0.125 0.25 0.375 0.25 0.25 0.375 0.375 0.25 0.375 0.5 0.25 0.375 0.625 0.25 0.375 0.75 0.25 0.375 0.875 0.25 0.375 1 0.25 0.375 0 0.375 0.375 0.125 0.375 0.375 0.25 0.375 0.375 0.375 0.375 0.375 0.5 0.375 0.375 0.625 0.375 0.375 0.75 0.375 0.375 0.875 0.375 0.375 1 0.375 0.375 0 0.5 0.375 0.125 0.5 0.375 0.25 0.5 0.375 0.375 0.5 0.375 0.5 0.5 0.375 0.625 0.5 0.375 0.75 0.5 0.375 0.875 0.5 0.375 1 0.5 0.375 0 0.625 0.375 0.125 0.625 0.375 0.25 0.625 0.375 0.375 0.625 0.375 0.5 0.625 0.375 0.625 0.625 0.375 0.75 0.625 0.375 0.875 0.625 0.375 1 0.625 0.375 0 0.75 0.375 0.125 0.75 0.375 0.25 0.75 0.375 0.375 0.75 0.375 0.5 0.75 0.375 0.625 0.75 0.375 0.75 0.75 0.375 0.875 0.75 0.375 1 0.75 0.375 0 0.875 0.375 0.125 0.875 0.375 0.25 0.875 0.375 0.375 0.875 0.375 0.5 0.875 0.375 0.625 0.875 0.375 0.75 0.875 0.375 0.875 0.875 0.375 1 0.875 0.375 0 1 0.375 0.125 1 0.375 0.25 1 0.375 0.375 1 0.375 0.5 1 0.375 0.625 1 0.375 0.75 1 0.375 0.875 1 0.375 1 1 0.375 0 0 0.5 0.125 0 0.5 0.25 0 0.5 0.375 0 0.5 0.5 0 0.5 0.625 0 0.5 0.75 0 0.5 0.875 0 0.5 1 0 0.5 0 0.125 0.5 0.125 0.125 0.5 0.25 0.125 0.5 0.375 0.125 0.5 0.5 0.125 0.5 0.625 0.125 0.5 0.75 0.125 0.5 0.875 0.125 0.5 1 0.125 0.5 0 0.25 0.5 0.125 0.25 0.5 0.25 0.25 0.5 0.375 0.25 0.5 0.5 0.25 0.5 0.625 0.25 0.5 0.75 0.25 0.5 0.875 0.25 0.5 1 0.25 0.5 0 0.375 0.5 0.125 0.375 0.5 0.25 0.375 0.5 0.375 0.375 0.5 0.5 0.375 0.5 0.625 0.375 0.5 0.75 0.375 0.5 0.875 0.375 0.5 1 0.375 0.5 0 0.5 0.5 0.125 0.5 0.5 0.25 0.5 0.5 0.375 0.5 0.5 0.5 0.5 0.5 0.625 0.5 0.5 0.75 0.5 0.5 0.875 0.5 0.5 1 0.5 0.5 0 0.625 0.5 0.125 0.625 0.5 0.25 0.625 0.5 0.375 0.625 0.5 0.5 0.625 0.5 0.625 0.625 0.5 0.75 0.625 0.5 0.875 0.625 0.5 1 0.625 0.5 0 0.75 0.5 0.125 0.75 0.5 0.25 0.75 0.5 0.375 0.75 0.5 0.5 0.75 0.5 0.625 0.75 0.5 0.75 0.75 0.5 0.875 0.75 0.5 1 0.75 0.5 0 0.875 0.5 0.125 0.875 0.5 0.25 0.875 0.5 0.375 0.875 0.5 0.5 0.875 0.5 0.625 0.875 0.5 0.75 0.875 0.5 0.875 0.875 0.5 1 0.875 0.5 0 1 0.5 0.125 1 0.5 0.25 1 0.5 0.375 1 0.5 0.5 1 0.5 0.625 1 0.5 0.75 1 0.5 0.875 1 0.5 1 1 0.5 0 0 0.625 0.125 0 0.625 0.25 0 0.625 0.375 0 0.625 0.5 0 0.625 0.625 0 0.625 0.75 0 0.625 0.875 0 0.625 1 0 0.625 0 0.125 0.625 0.125 0.125 0.625 0.25 0.125 0.625 0.375 0.125 0.625 0.5 0.125 0.625 0.625 0.125 0.625 0.75 0.125 0.625 0.875 0.125 0.625 1 0.125 0.625 0 0.25 0.625 0.125 0.25 0.625 0.25 0.25 0.625 0.375 0.25 0.625 0.5 0.25 0.625 0.625 0.25 0.625 0.75 0.25 0.625 0.875 0.25 0.625 1 0.25 0.625 0 0.375 0.625 0.125 0.375 0.625 0.25 0.375 0.625 0.375 0.375 0.625 0.5 0.375 0.625 0.625 0.375 0.625 0.75 0.375 0.625 0.875 0.375 0.625 1 0.375 0.625 0 0.5 0.625 0.125 0.5 0.625 0.25 0.5 0.625 0.375 0.5 0.625 0.5 0.5 0.625 0.625 0.5 0.625 0.75 0.5 0.625 0.875 0.5 0.625 1 0.5 0.625 0 0.625 0.625 0.125 0.625 0.625 0.25 0.625 0.625 0.375 0.625 0.625 0.5 0.625 0.625 0.625 0.625 0.625 0.75 0.625 0.625 0.875 0.625 0.625 1 0.625 0.625 0 0.75 0.625 0.125 0.75 0.625 0.25 0.75 0.625 0.375 0.75 0.625 0.5 0.75 0.625 0.625 0.75 0.625 0.75 0.75 0.625 0.875 0.75 0.625 1 0.75 0.625 0 0.875 0.625 0.125 0.875 0.625 0.25 0.875 0.625 0.375 0.875 0.625 0.5 0.875 0.625 0.625 0.875 0.625 0.75 0.875 0.625 0.875 0.875 0.625 1 0.875 0.625 0 1 0.625 0.125 1 0.625 0.25 1 0.625 0.375 1 0.625 0.5 1 0.625 0.625 1 0.625 0.75 1 0.625 0.875 1 0.625 1 1 0.625 0 0 0.75 0.125 0 0.75 0.25 0 0.75 0.375 0 0.75 0.5 0 0.75 0.625 0 0.75 0.75 0 0.75 0.875 0 0.75 1 0 0.75 0 0.125 0.75 0.125 0.125 0.75 0.25 0.125 0.75 0.375 0.125 0.75 0.5 0.125 0.75 0.625 0.125 0.75 0.75 0.125 0.75 0.875 0.125 0.75 1 0.125 0.75 0 0.25 0.75 0.125 0.25 0.75 0.25 0.25 0.75 0.375 0.25 0.75 0.5 0.25 0.75 0.625 0.25 0.75 0.75 0.25 0.75 0.875 0.25 0.75 1 0.25 0.75 0 0.375 0.75 0.125 0.375 0.75 0.25 0.375 0.75 0.375 0.375 0.75 0.5 0.375 0.75 0.625 0.375 0.75 0.75 0.375 0.75 0.875 0.375 0.75 1 0.375 0.75 0 0.5 0.75 0.125 0.5 0.75 0.25 0.5 0.75 0.375 0.5 0.75 0.5 0.5 0.75 0.625 0.5 0.75 0.75 0.5 0.75 0.875 0.5 0.75 1 0.5 0.75 0 0.625 0.75 0.125 0.625 0.75 0.25 0.625 0.75 0.375 0.625 0.75 0.5 0.625 0.75 0.625 0.625 0.75 0.75 0.625 0.75 0.875 0.625 0.75 1 0.625 0.75 0 0.75 0.75 0.125 0.75 0.75 0.25 0.75 0.75 0.375 0.75 0.75 0.5 0.75 0.75 0.625 0.75 0.75 0.75 0.75 0.75 0.875 0.75 0.75 1 0.75 0.75 0 0.875 0.75 0.125 0.875 0.75 0.25 0.875 0.75 0.375 0.875 0.75 0.5 0.875 0.75 0.625 0.875 0.75 0.75 0.875 0.75 0.875 0.875 0.75 1 0.875 0.75 0 1 0.75 0.125 1 0.75 0.25 1 0.75 0.375 1 0.75 0.5 1 0.75 0.625 1 0.75 0.75 1 0.75 0.875 1 0.75 1 1 0.75 0 0 0.875 0.125 0 0.875 0.25 0 0.875 0.375 0 0.875 0.5 0 0.875 0.625 0 0.875 0.75 0 0.875 0.875 0 0.875 1 0 0.875 0 0.125 0.875 0.125 0.125 0.875 0.25 0.125 0.875 0.375 0.125 0.875 0.5 0.125 0.875 0.625 0.125 0.875 0.75 0.125 0.875 0.875 0.125 0.875 1 0.125 0.875 0 0.25 0.875 0.125 0.25 0.875 0.25 0.25 0.875 0.375 0.25 0.875 0.5 0.25 0.875 0.625 0.25 0.875 0.75 0.25 0.875 0.875 0.25 0.875 1 0.25 0.875 0 0.375 0.875 0.125 0.375 0.875 0.25 0.375 0.875 0.375 0.375 0.875 0.5 0.375 0.875 0.625 0.375 0.875 0.75 0.375 0.875 0.875 0.375 0.875 1 0.375 0.875 0 0.5 0.875 0.125 0.5 0.875 0.25 0.5 0.875 0.375 0.5 0.875 0.5 0.5 0.875 0.625 0.5 0.875 0.75 0.5 0.875 0.875 0.5 0.875 1 0.5 0.875 0 0.625 0.875 0.125 0.625 0.875 0.25 0.625 0.875 0.375 0.625 0.875 0.5 0.625 0.875 0.625 0.625 0.875 0.75 0.625 0.875 0.875 0.625 0.875 1 0.625 0.875 0 0.75 0.875 0.125 0.75 0.875 0.25 0.75 0.875 0.375 0.75 0.875 0.5 0.75 0.875 0.625 0.75 0.875 0.75 0.75 0.875 0.875 0.75 0.875 1 0.75 0.875 0 0.875 0.875 0.125 0.875 0.875 0.25 0.875 0.875 0.375 0.875 0.875 0.5 0.875 0.875 0.625 0.875 0.875 0.75 0.875 0.875 0.875 0.875 0.875 1 0.875 0.875 0 1 0.875 0.125 1 0.875 0.25 1 0.875 0.375 1 0.875 0.5 1 0.875 0.625 1 0.875 0.75 1 0.875 0.875 1 0.875 1 1 0.875 0 0 1 0.125 0 1 0.25 0 1 0.375 0 1 0.5 0 1 0.625 0 1 0.75 0 1 0.875 0 1 1 0 1 0 0.125 1 0.125 0.125 1 0.25 0.125 1 0.375 0.125 1 0.5 0.125 1 0.625 0.125 1 0.75 0.125 1 0.875 0.125 1 1 0.125 1 0 0.25 1 0.125 0.25 1 0.25 0.25 1 0.375 0.25 1 0.5 0.25 1 0.625 0.25 1 0.75 0.25 1 0.875 0.25 1 1 0.25 1 0 0.375 1 0.125 0.375 1 0.25 0.375 1 0.375 0.375 1 0.5 0.375 1 0.625 0.375 1 0.75 0.375 1 0.875 0.375 1 1 0.375 1 0 0.5 1 0.125 0.5 1 0.25 0.5 1 0.375 0.5 1 0.5 0.5 1 0.625 0.5 1 0.75 0.5 1 0.875 0.5 1 1 0.5 1 0 0.625 1 0.125 0.625 1 0.25 0.625 1 0.375 0.625 1 0.5 0.625 1 0.625 0.625 1 0.75 0.625 1 0.875 0.625 1 1 0.625 1 0 0.75 1 0.125 0.75 1 0.25 0.75 1 0.375 0.75 1 0.5 0.75 1 0.625 0.75 1 0.75 0.75 1 0.875 0.75 1 1 0.75 1 0 0.875 1 0.125 0.875 1 0.25 0.875 1 0.375 0.875 1 0.5 0.875 1 0.625 0.875 1 0.75 0.875 1 0.875 0.875 1 1 0.875 1 0 1 1 0.125 1 1 0.25 1 1 0.375 1 1 0.5 1 1 0.625 1 1 0.75 1 1 0.875 1 1 1 1 1         </DataArray>
      </Points>
    </Piece>
  </StructuredGrid>
</VTKFile>
