# vtk DataFile Version 2.0
Gerris simulation version 1.3.2 (131206-155120)
ASCII
DATASET UNSTRUCTURED_GRID

POINTS 1089 float
-0.5 0.46875 0
-0.46875 0.46875 0
-0.5 0.5 0
-0.46875 0.5 0
-0.4375 0.46875 0
-0.4375 0.5 0
-0.5 0.4375 0
-0.46875 0.4375 0
-0.4375 0.4375 0
-0.40625 0.46875 0
-0.40625 0.5 0
-0.375 0.46875 0
-0.375 0.5 0
-0.40625 0.4375 0
-0.375 0.4375 0
-0.5 0.40625 0
-0.46875 0.40625 0
-0.4375 0.40625 0
-0.5 0.375 0
-0.46875 0.375 0
-0.4375 0.375 0
-0.40625 0.40625 0
-0.375 0.40625 0
-0.40625 0.375 0
-0.375 0.375 0
-0.34375 0.46875 0
-0.34375 0.5 0
-0.3125 0.46875 0
-0.3125 0.5 0
-0.34375 0.4375 0
-0.3125 0.4375 0
-0.28125 0.46875 0
-0.28125 0.5 0
-0.25 0.46875 0
-0.25 0.5 0
-0.28125 0.4375 0
-0.25 0.4375 0
-0.34375 0.40625 0
-0.3125 0.40625 0
-0.34375 0.375 0
-0.3125 0.375 0
-0.28125 0.40625 0
-0.25 0.40625 0
-0.28125 0.375 0
-0.25 0.375 0
-0.5 0.34375 0
-0.46875 0.34375 0
-0.4375 0.34375 0
-0.5 0.3125 0
-0.46875 0.3125 0
-0.4375 0.3125 0
-0.40625 0.34375 0
-0.375 0.34375 0
-0.40625 0.3125 0
-0.375 0.3125 0
-0.5 0.28125 0
-0.46875 0.28125 0
-0.4375 0.28125 0
-0.5 0.25 0
-0.46875 0.25 0
-0.4375 0.25 0
-0.40625 0.28125 0
-0.375 0.28125 0
-0.40625 0.25 0
-0.375 0.25 0
-0.34375 0.34375 0
-0.3125 0.34375 0
-0.34375 0.3125 0
-0.3125 0.3125 0
-0.28125 0.34375 0
-0.25 0.34375 0
-0.28125 0.3125 0
-0.25 0.3125 0
-0.34375 0.28125 0
-0.3125 0.28125 0
-0.34375 0.25 0
-0.3125 0.25 0
-0.28125 0.28125 0
-0.25 0.28125 0
-0.28125 0.25 0
-0.25 0.25 0
-0.21875 0.46875 0
-0.21875 0.5 0
-0.1875 0.46875 0
-0.1875 0.5 0
-0.21875 0.4375 0
-0.1875 0.4375 0
-0.15625 0.46875 0
-0.15625 0.5 0
-0.125 0.46875 0
-0.125 0.5 0
-0.15625 0.4375 0
-0.125 0.4375 0
-0.21875 0.40625 0
-0.1875 0.40625 0
-0.21875 0.375 0
-0.1875 0.375 0
-0.15625 0.40625 0
-0.125 0.40625 0
-0.15625 0.375 0
-0.125 0.375 0
-0.09375 0.46875 0
-0.09375 0.5 0
-0.0625 0.46875 0
-0.0625 0.5 0
-0.09375 0.4375 0
-0.0625 0.4375 0
-0.03125 0.46875 0
-0.03125 0.5 0
0 0.46875 0
0 0.5 0
-0.03125 0.4375 0
0 0.4375 0
-0.09375 0.40625 0
-0.0625 0.40625 0
-0.09375 0.375 0
-0.0625 0.375 0
-0.03125 0.40625 0
0 0.40625 0
-0.03125 0.375 0
0 0.375 0
-0.21875 0.34375 0
-0.1875 0.34375 0
-0.21875 0.3125 0
-0.1875 0.3125 0
-0.15625 0.34375 0
-0.125 0.34375 0
-0.15625 0.3125 0
-0.125 0.3125 0
-0.21875 0.28125 0
-0.1875 0.28125 0
-0.21875 0.25 0
-0.1875 0.25 0
-0.15625 0.28125 0
-0.125 0.28125 0
-0.15625 0.25 0
-0.125 0.25 0
-0.09375 0.34375 0
-0.0625 0.34375 0
-0.09375 0.3125 0
-0.0625 0.3125 0
-0.03125 0.34375 0
0 0.34375 0
-0.03125 0.3125 0
0 0.3125 0
-0.09375 0.28125 0
-0.0625 0.28125 0
-0.09375 0.25 0
-0.0625 0.25 0
-0.03125 0.28125 0
0 0.28125 0
-0.03125 0.25 0
0 0.25 0
-0.5 0.21875 0
-0.46875 0.21875 0
-0.4375 0.21875 0
-0.5 0.1875 0
-0.46875 0.1875 0
-0.4375 0.1875 0
-0.40625 0.21875 0
-0.375 0.21875 0
-0.40625 0.1875 0
-0.375 0.1875 0
-0.5 0.15625 0
-0.46875 0.15625 0
-0.4375 0.15625 0
-0.5 0.125 0
-0.46875 0.125 0
-0.4375 0.125 0
-0.40625 0.15625 0
-0.375 0.15625 0
-0.40625 0.125 0
-0.375 0.125 0
-0.34375 0.21875 0
-0.3125 0.21875 0
-0.34375 0.1875 0
-0.3125 0.1875 0
-0.28125 0.21875 0
-0.25 0.21875 0
-0.28125 0.1875 0
-0.25 0.1875 0
-0.34375 0.15625 0
-0.3125 0.15625 0
-0.34375 0.125 0
-0.3125 0.125 0
-0.28125 0.15625 0
-0.25 0.15625 0
-0.28125 0.125 0
-0.25 0.125 0
-0.5 0.09375 0
-0.46875 0.09375 0
-0.4375 0.09375 0
-0.5 0.0625 0
-0.46875 0.0625 0
-0.4375 0.0625 0
-0.40625 0.09375 0
-0.375 0.09375 0
-0.40625 0.0625 0
-0.375 0.0625 0
-0.5 0.03125 0
-0.46875 0.03125 0
-0.4375 0.03125 0
-0.5 0 0
-0.46875 0 0
-0.4375 0 0
-0.40625 0.03125 0
-0.375 0.03125 0
-0.40625 0 0
-0.375 0 0
-0.34375 0.09375 0
-0.3125 0.09375 0
-0.34375 0.0625 0
-0.3125 0.0625 0
-0.28125 0.09375 0
-0.25 0.09375 0
-0.28125 0.0625 0
-0.25 0.0625 0
-0.34375 0.03125 0
-0.3125 0.03125 0
-0.34375 0 0
-0.3125 0 0
-0.28125 0.03125 0
-0.25 0.03125 0
-0.28125 0 0
-0.25 0 0
-0.21875 0.21875 0
-0.1875 0.21875 0
-0.21875 0.1875 0
-0.1875 0.1875 0
-0.15625 0.21875 0
-0.125 0.21875 0
-0.15625 0.1875 0
-0.125 0.1875 0
-0.21875 0.15625 0
-0.1875 0.15625 0
-0.21875 0.125 0
-0.1875 0.125 0
-0.15625 0.15625 0
-0.125 0.15625 0
-0.15625 0.125 0
-0.125 0.125 0
-0.09375 0.21875 0
-0.0625 0.21875 0
-0.09375 0.1875 0
-0.0625 0.1875 0
-0.03125 0.21875 0
0 0.21875 0
-0.03125 0.1875 0
0 0.1875 0
-0.09375 0.15625 0
-0.0625 0.15625 0
-0.09375 0.125 0
-0.0625 0.125 0
-0.03125 0.15625 0
0 0.15625 0
-0.03125 0.125 0
0 0.125 0
-0.21875 0.09375 0
-0.1875 0.09375 0
-0.21875 0.0625 0
-0.1875 0.0625 0
-0.15625 0.09375 0
-0.125 0.09375 0
-0.15625 0.0625 0
-0.125 0.0625 0
-0.21875 0.03125 0
-0.1875 0.03125 0
-0.21875 0 0
-0.1875 0 0
-0.15625 0.03125 0
-0.125 0.03125 0
-0.15625 0 0
-0.125 0 0
-0.09375 0.09375 0
-0.0625 0.09375 0
-0.09375 0.0625 0
-0.0625 0.0625 0
-0.03125 0.09375 0
0 0.09375 0
-0.03125 0.0625 0
0 0.0625 0
-0.09375 0.03125 0
-0.0625 0.03125 0
-0.09375 0 0
-0.0625 0 0
-0.03125 0.03125 0
0 0.03125 0
-0.03125 0 0
0 0 0
0.03125 0.46875 0
0.03125 0.5 0
0.0625 0.46875 0
0.0625 0.5 0
0.03125 0.4375 0
0.0625 0.4375 0
0.09375 0.46875 0
0.09375 0.5 0
0.125 0.46875 0
0.125 0.5 0
0.09375 0.4375 0
0.125 0.4375 0
0.03125 0.40625 0
0.0625 0.40625 0
0.03125 0.375 0
0.0625 0.375 0
0.09375 0.40625 0
0.125 0.40625 0
0.09375 0.375 0
0.125 0.375 0
0.15625 0.46875 0
0.15625 0.5 0
0.1875 0.46875 0
0.1875 0.5 0
0.15625 0.4375 0
0.1875 0.4375 0
0.21875 0.46875 0
0.21875 0.5 0
0.25 0.46875 0
0.25 0.5 0
0.21875 0.4375 0
0.25 0.4375 0
0.15625 0.40625 0
0.1875 0.40625 0
0.15625 0.375 0
0.1875 0.375 0
0.21875 0.40625 0
0.25 0.40625 0
0.21875 0.375 0
0.25 0.375 0
0.03125 0.34375 0
0.0625 0.34375 0
0.03125 0.3125 0
0.0625 0.3125 0
0.09375 0.34375 0
0.125 0.34375 0
0.09375 0.3125 0
0.125 0.3125 0
0.03125 0.28125 0
0.0625 0.28125 0
0.03125 0.25 0
0.0625 0.25 0
0.09375 0.28125 0
0.125 0.28125 0
0.09375 0.25 0
0.125 0.25 0
0.15625 0.34375 0
0.1875 0.34375 0
0.15625 0.3125 0
0.1875 0.3125 0
0.21875 0.34375 0
0.25 0.34375 0
0.21875 0.3125 0
0.25 0.3125 0
0.15625 0.28125 0
0.1875 0.28125 0
0.15625 0.25 0
0.1875 0.25 0
0.21875 0.28125 0
0.25 0.28125 0
0.21875 0.25 0
0.25 0.25 0
0.28125 0.46875 0
0.28125 0.5 0
0.3125 0.46875 0
0.3125 0.5 0
0.28125 0.4375 0
0.3125 0.4375 0
0.34375 0.46875 0
0.34375 0.5 0
0.375 0.46875 0
0.375 0.5 0
0.34375 0.4375 0
0.375 0.4375 0
0.28125 0.40625 0
0.3125 0.40625 0
0.28125 0.375 0
0.3125 0.375 0
0.34375 0.40625 0
0.375 0.40625 0
0.34375 0.375 0
0.375 0.375 0
0.40625 0.46875 0
0.40625 0.5 0
0.4375 0.46875 0
0.4375 0.5 0
0.40625 0.4375 0
0.4375 0.4375 0
0.46875 0.46875 0
0.46875 0.5 0
0.5 0.46875 0
0.5 0.5 0
0.46875 0.4375 0
0.5 0.4375 0
0.40625 0.40625 0
0.4375 0.40625 0
0.40625 0.375 0
0.4375 0.375 0
0.46875 0.40625 0
0.5 0.40625 0
0.46875 0.375 0
0.5 0.375 0
0.28125 0.34375 0
0.3125 0.34375 0
0.28125 0.3125 0
0.3125 0.3125 0
0.34375 0.34375 0
0.375 0.34375 0
0.34375 0.3125 0
0.375 0.3125 0
0.28125 0.28125 0
0.3125 0.28125 0
0.28125 0.25 0
0.3125 0.25 0
0.34375 0.28125 0
0.375 0.28125 0
0.34375 0.25 0
0.375 0.25 0
0.40625 0.34375 0
0.4375 0.34375 0
0.40625 0.3125 0
0.4375 0.3125 0
0.46875 0.34375 0
0.5 0.34375 0
0.46875 0.3125 0
0.5 0.3125 0
0.40625 0.28125 0
0.4375 0.28125 0
0.40625 0.25 0
0.4375 0.25 0
0.46875 0.28125 0
0.5 0.28125 0
0.46875 0.25 0
0.5 0.25 0
0.03125 0.21875 0
0.0625 0.21875 0
0.03125 0.1875 0
0.0625 0.1875 0
0.09375 0.21875 0
0.125 0.21875 0
0.09375 0.1875 0
0.125 0.1875 0
0.03125 0.15625 0
0.0625 0.15625 0
0.03125 0.125 0
0.0625 0.125 0
0.09375 0.15625 0
0.125 0.15625 0
0.09375 0.125 0
0.125 0.125 0
0.15625 0.21875 0
0.1875 0.21875 0
0.15625 0.1875 0
0.1875 0.1875 0
0.21875 0.21875 0
0.25 0.21875 0
0.21875 0.1875 0
0.25 0.1875 0
0.15625 0.15625 0
0.1875 0.15625 0
0.15625 0.125 0
0.1875 0.125 0
0.21875 0.15625 0
0.25 0.15625 0
0.21875 0.125 0
0.25 0.125 0
0.03125 0.09375 0
0.0625 0.09375 0
0.03125 0.0625 0
0.0625 0.0625 0
0.09375 0.09375 0
0.125 0.09375 0
0.09375 0.0625 0
0.125 0.0625 0
0.03125 0.03125 0
0.0625 0.03125 0
0.03125 0 0
0.0625 0 0
0.09375 0.03125 0
0.125 0.03125 0
0.09375 0 0
0.125 0 0
0.15625 0.09375 0
0.1875 0.09375 0
0.15625 0.0625 0
0.1875 0.0625 0
0.21875 0.09375 0
0.25 0.09375 0
0.21875 0.0625 0
0.25 0.0625 0
0.15625 0.03125 0
0.1875 0.03125 0
0.15625 0 0
0.1875 0 0
0.21875 0.03125 0
0.25 0.03125 0
0.21875 0 0
0.25 0 0
0.28125 0.21875 0
0.3125 0.21875 0
0.28125 0.1875 0
0.3125 0.1875 0
0.34375 0.21875 0
0.375 0.21875 0
0.34375 0.1875 0
0.375 0.1875 0
0.28125 0.15625 0
0.3125 0.15625 0
0.28125 0.125 0
0.3125 0.125 0
0.34375 0.15625 0
0.375 0.15625 0
0.34375 0.125 0
0.375 0.125 0
0.40625 0.21875 0
0.4375 0.21875 0
0.40625 0.1875 0
0.4375 0.1875 0
0.46875 0.21875 0
0.5 0.21875 0
0.46875 0.1875 0
0.5 0.1875 0
0.40625 0.15625 0
0.4375 0.15625 0
0.40625 0.125 0
0.4375 0.125 0
0.46875 0.15625 0
0.5 0.15625 0
0.46875 0.125 0
0.5 0.125 0
0.28125 0.09375 0
0.3125 0.09375 0
0.28125 0.0625 0
0.3125 0.0625 0
0.34375 0.09375 0
0.375 0.09375 0
0.34375 0.0625 0
0.375 0.0625 0
0.28125 0.03125 0
0.3125 0.03125 0
0.28125 0 0
0.3125 0 0
0.34375 0.03125 0
0.375 0.03125 0
0.34375 0 0
0.375 0 0
0.40625 0.09375 0
0.4375 0.09375 0
0.40625 0.0625 0
0.4375 0.0625 0
0.46875 0.09375 0
0.5 0.09375 0
0.46875 0.0625 0
0.5 0.0625 0
0.40625 0.03125 0
0.4375 0.03125 0
0.40625 0 0
0.4375 0 0
0.46875 0.03125 0
0.5 0.03125 0
0.46875 0 0
0.5 0 0
-0.5 -0.03125 0
-0.46875 -0.03125 0
-0.4375 -0.03125 0
-0.5 -0.0625 0
-0.46875 -0.0625 0
-0.4375 -0.0625 0
-0.40625 -0.03125 0
-0.375 -0.03125 0
-0.40625 -0.0625 0
-0.375 -0.0625 0
-0.5 -0.09375 0
-0.46875 -0.09375 0
-0.4375 -0.09375 0
-0.5 -0.125 0
-0.46875 -0.125 0
-0.4375 -0.125 0
-0.40625 -0.09375 0
-0.375 -0.09375 0
-0.40625 -0.125 0
-0.375 -0.125 0
-0.34375 -0.03125 0
-0.3125 -0.03125 0
-0.34375 -0.0625 0
-0.3125 -0.0625 0
-0.28125 -0.03125 0
-0.25 -0.03125 0
-0.28125 -0.0625 0
-0.25 -0.0625 0
-0.34375 -0.09375 0
-0.3125 -0.09375 0
-0.34375 -0.125 0
-0.3125 -0.125 0
-0.28125 -0.09375 0
-0.25 -0.09375 0
-0.28125 -0.125 0
-0.25 -0.125 0
-0.5 -0.15625 0
-0.46875 -0.15625 0
-0.4375 -0.15625 0
-0.5 -0.1875 0
-0.46875 -0.1875 0
-0.4375 -0.1875 0
-0.40625 -0.15625 0
-0.375 -0.15625 0
[...]
POINT_DATA 1089
SCALARS T float
LOOKUP_TABLE default
0
0
0
0
0
0
0
0
0
0
0
0
0
0
0
0
0
0
0
0
0
0
0
0
0
0
0
0
0
0
0
0
0
0
0
0
0
0
0
0
0
0
0
0
0
0
0
0
0
0
0
0
0
0
0
0
0
0
0
0
0
0
0
0
0
0
0
0
0
0
0
0
0
0
0
0
0
0
0
0
0
0
0
0
0
0
0
0
0
0
0
0
0
0
0
0
0
0
0
0
0
0
0
0
0
0
0
0
0
0
0
0
0
0
0
0
0
0
0
0
0
0
0
0
0
0
0
0
0
0
0
0
0
0
0
0
0
0
0
0
0
0
0
0
0
0
0
0
0
0
0
0
0
0
0
0
0
0
0
0
0
0
0
0
0
0
0
0
0
0
0
0
0
0
0
0
0
0
0
0
0
0
0
0
0
0
0
0
0
0
0
0
0
0
0
0
0
0
0
0
0
0
0
0
0
0
0
0
0.0287529
0
0
0
0
0
0
0
0
9.5514e-05
0.0322043
0.212624
0.465736
0.112524
0.184283
0.612281
0.684283
0
0
0
0
0
0
0
0
0
0
0
0
0
0
0
0
0
0
0
0
0
0
0
0
0
0
0
0
0
0
0
0
0
0
0
0
0
0
0
0
0.210246
0.195624
0.710246
0.695624
0.139242
0.0535844
0.639242
0.526401
0
0
0
0
0
0
0
0
0.00358789
0
0.324712
0.0984642
0
0
0.00015651
0
0
0
0
0
0
0
0
0
0
0
0
0
0
0
0
0
0
0
0
0
0
0
0
0
0
0
0
0
0
0
0
0
0
0
0
0
0
0
0
0
0
0
0
0
0
0
0
0
0
0
5.01995e-05
0.107047
0.00817545
0.0416765
0.352232
0.528737
0
0
0
0
0
0
0
0
0.0419036
0.00840255
0.528558
0.358521
0
0
0.113493
2.78255e-05
0
0
0
0
0
0
0
0
0
0
0
0
0
0
0
0
0
0
0
0
0
0
0
0
0
0
0
0
0
0
0
0
0
0
0
0
0
0
0
0
0
0
0
0
0
0
0
0
0
0
0
0
0
0
0
0
0
0
0
0
0
0
0
0
0
0
0
0
0
0
0
0
0.0434892
0.399156
0.136316
0.634986
0.842727
0.98706
0.99867
1
0.137311
0.636763
0.044447
0.412579
0.999451
1
0.863569
0.995437
0.986654
0.848983
1
0.998864
0.425386
0.0630567
0.673557
0.174693
1
1
0.997779
0.890014
0.674139
0.174139
0.455401
0.0631655
1.25181e-05
0.118693
0
0
0.382691
0.574018
0.018573
0.0785803
0
0
0
0
0
0
0.0050058
0.0224989
0.589398
0.421626
0.0916193
0.031612
0.142925
0.000689993
0
0
0
0
0.0201823
0.00268925
0
0
0
0
0
0
0
0
0
0
0
0
0
0
0
0
0
0
0
0
0
0
0
0
0
0
0
0
0
0
0
0
0
0
0
0
0
0
0
0
0
0
0
0
0
0
0
0
0
0
0
0
0
0
0
0
0
0
0
0
0
0
0
0
0
0
0
0
0
0
0
0
0
0
0.0118738
0.254647
0.105182
0.569201
0
0
0
0
0
0
0.240194
0.740194
0.303333
0.803333
0.676548
0.933532
0.96402
1
0.999757
1
1
1
1
1
1
1
1
1
1
1
0
0
0
0
0
0
0.282741
0.782741
0.174774
0.674491
0
0
0
0
0
0
0.0484791
0.443445
0
0.146916
1
1
0.999718
1
1
1
1
1
0.894966
1
0.491366
0.793428
1
1
0.944989
0.996011
1
1
1
1
1
0.972817
1
1
1
1
1
1
1
1
1
1
0.821124
0.465858
1
0.853271
0.11755
0
0.364027
0.0107565
1
0.985877
1
1
0.547828
0.061951
0.615437
0.115437
1
1
1
1
1
1
1
1
1
1
1
0.997267
1
1
0.957377
0.846201
1
1
1
0.954403
0.598284
0.0982842
0.489462
0.0350589
0.98414
0.749321
0.647286
0.321974
0.266198
0.00101687
0.0607789
0
0
0
0
0
0
0
0
0.00166703
0
0
0
0
0
0
0
0
0
0
0
0
0.0961174
0.293428
0
0
0.450418
0.524353
0.00542848
0.0283417
0
0
0
0
0
0
0
0
0
0
0
0
0
0
0
0
0
0
0
0
0
0
0
0
0
0
0
0
0
0
0
0
0
0
0
0
0
0
0
0
0
0
0
0
0.545964
0.52593
0.0459642
0.0286631
0.46299
0.346201
0.00561218
0
0
0
0
0
0
0
0
0
0.163146
0.0270555
0
0
0
0
0
0
0
0
0
0
0
0
0
0
0
0
0
0
0
0
0
0
0
0
0
0
0
0
0
0
0
0
0
0
0
0
0
0
0
0
0
0
0
0
0
0
0
0.0135379
0
0.11194
0.212553
0.466508
0.555949
0.944009
0
0.181697
0
0.0893097
0.681697
1
0.49138
0.887646
0.446142
0.184357
0.92596
0.495175
0.00570743
0
0.0692147
0
1
0.612325
0.862785
0.426027
0.112325
0
0.0488172
0
0
0.00601487
0
0
0.158085
0.387972
0
0.000325608
0
0
0
0
0
0
0
0
0.400611
0.164709
0.0378257
0.0375
0
0
0
0
0
0
0
0
0
0
0
0
0
0
0
0
0
0
0
0
0
0
0
0
0
0
0
0
0
0
0
0
0
0
0
0
0
0
0
0
0
0
0
0
0
0
0
0
0
0
0
0
0
0
0
0
0
0
0
0
0
0
0
0
0
0
0
0
0
0
0
0
0
0
0
0
0
0
0
0
0
0
0
0
0
0
0
0
0
0
0
0
0
0
0
0
0
0
0
0
0
0
0
0
0
0
0
0
0
0
0
0
0
0
0
0
0
0
0
0
0
0
0
0
0
0
0
0
0
0
0
0
0
0
0
0
0
0
0
0
0
0
0
0
0
0
0
0
0
0
0
0
0
0
0
0
0
0
0
0
0
0
0
0
0
0
0
0
0
0
0
0
0
0
0
0
0
0
0
0
0
0
0
0
0
0
0
0
0
0
0
0
0
0
0
0
0
0
0
0
0
0
0
0

SCALARS P float
LOOKUP_TABLE default
-0.0104796
-0.0103192
-0.0105106
-0.0103537
-0.0101119
-0.0101418
-0.0105021
-0.0103362
-0.0101327
-0.00985793
-0.00986663
-0.00956081
-0.00952506
-0.00989495
-0.0096298
-0.0105691
-0.0103954
-0.0101914
-0.0106761
-0.01049
-0.0102793
-0.00996195
-0.00971573
-0.0100491
-0.00980892
-0.00923241
-0.0091257
-0.00889507
-0.00869337
-0.00935002
-0.00907516
-0.00858532
-0.00828101
-0.00834531
-0.00795403
-0.00883217
-0.00865026
-0.00946545
-0.00922875
-0.00957123
-0.0093529
-0.00902747
-0.00888404
-0.00917393
-0.00905415
-0.0108191
-0.0106151
-0.0103905
-0.0109946
-0.0107668
-0.0105214
-0.01015
-0.00990291
-0.0102609
-0.00999388
-0.0111971
-0.0109421
-0.0106704
-0.0114242
-0.0111406
-0.0108399
-0.0103813
-0.0100811
-0.0105149
-0.0101683
-0.00966165
-0.00944358
-0.00973242
-0.00949574
-0.00926965
-0.00916045
-0.00930876
-0.00919585
-0.0097812
-0.00950412
-0.00980868
-0.00946313
-0.00928206
-0.00914721
-0.00917574
-0.00899245
-0.00820707
-0.00776082
-0.00818893
-0.00772939
-0.00855185
-0.00854905
-0.00828868
-0.00785837
-0.00848437
-0.00811834
-0.00863839
-0.00880088
-0.00881568
-0.0088305
-0.00900878
-0.00904346
-0.00892328
-0.0090753
-0.00915118
-0.00931146
-0.00873798
-0.00845696
-0.00900372
-0.0088097
-0.0090056
-0.00921575
-0.00924111
-0.00912186
-0.00942563
-0.00936775
-0.00939882
-0.00953086
-0.00925798
-0.00943829
-0.00949616
-0.00967321
-0.00958828
-0.00967998
-0.00981596
-0.00988832
-0.00913181
-0.00918841
-0.00917654
-0.00925631
-0.00932157
-0.0095086
-0.009426
-0.00966077
-0.00912733
-0.00923178
-0.00895677
-0.00908503
-0.00945261
-0.0097619
-0.00937143
-0.00978165
-0.00972126
-0.00992353
-0.0099301
-0.0101906
-0.0100894
-0.010176
-0.0104347
-0.0106076
-0.0101243
-0.0104987
-0.0102777
-0.0108384
-0.010904
-0.0112494
-0.0115179
-0.0122512
-0.0116659
-0.0113607
-0.0110345
-0.01192
-0.0116082
-0.0112675
-0.0106709
-0.0102658
-0.0108688
-0.0103957
-0.0121809
-0.011889
-0.0115566
-0.0124584
-0.0122242
-0.0119396
-0.0111396
-0.0105987
-0.0115451
-0.0109515
-0.00982109
-0.00936892
-0.00983464
-0.00922198
-0.0089724
-0.00870154
-0.00864973
-0.00822996
-0.00988547
-0.00903514
-0.010042
-0.00883896
-0.00818155
-0.00751515
-0.00753032
-0.00645866
-0.0127569
-0.0126263
-0.0124494
-0.0130828
-0.0131178
-0.0131469
-0.0121612
-0.0115791
-0.0131436
-0.0127611
-0.0134102
-0.0137037
-0.0141009
-0.0136645
-0.014264
-0.0151867
-0.0147332
-0.0149862
-0.0170752
-0.0170296
-0.0104644
-0.00876399
-0.0115091
-0.00905631
-0.00669697
-0.00493826
-0.00565118
-0.00272819
-0.0138662
-0.00908207
-0.00444269
0.0135954
-0.00107773
0.00505497
0.02259
0.0254639
-0.00862759
-0.0087785
-0.0080827
-0.00825243
-0.0091517
-0.00970076
-0.00873507
-0.00945505
-0.0072421
-0.00742768
-0.00598151
-0.00619378
-0.00806256
-0.00901375
-0.00708127
-0.00839659
-0.010391
-0.0112292
-0.0103561
-0.0114137
-0.0123223
-0.0138099
-0.0126945
-0.0145077
-0.0101482
-0.0113692
-0.00987165
-0.0113251
-0.012625
-0.014245
-0.0125956
-0.0139339
-0.00414245
-0.00440919
-0.00143462
-0.00178735
-0.00572783
-0.00763855
-0.00383955
-0.00677872
0.00731776
0.00660496
0.026274
0.0258375
0.00243386
-0.00452255
0.0239699
0.0184623
-0.00961852
-0.0113688
-0.00964449
-0.0119624
-0.0125772
-0.0133714
-0.0131044
-0.0133916
-0.0104606
-0.0137285
0.00532131
-0.0116382
-0.0146639
-0.0143028
-0.0181489
-0.0160034
-0.00954917
-0.00954189
-0.00961932
-0.00965635
-0.00960137
-0.0096129
-0.00964864
-0.00972658
-0.00968396
-0.00978893
-0.00957468
-0.00955674
-0.00970049
-0.00964054
-0.00987813
-0.0097299
-0.00949409
-0.0093789
-0.00940097
-0.00910793
-0.00975887
-0.00986649
-0.00988744
-0.00997412
-0.00961681
-0.0097746
-0.0100583
-0.0101088
-0.0102356
-0.0102502
-0.0100052
-0.0102407
-0.00941187
-0.00962116
-0.00908858
-0.00938951
-0.00995475
-0.0102837
-0.00990501
-0.0103859
-0.0101679
-0.00990946
-0.01071
-0.0103381
-0.00929242
-0.00869536
-0.00914307
-0.00788795
-0.0116201
-0.0112241
-0.0134462
-0.000928031
-0.00865714
-0.00383181
0.0279488
0.0475686
-0.00859166
-0.00905565
-0.00761529
-0.00843807
-0.00988618
-0.0106091
-0.00989722
-0.011026
-0.00321998
-0.00712991
0.0474032
0.0280883
-0.0102597
-0.0119533
-0.000694063
-0.014019
-0.010398
-0.0103867
-0.0105291
-0.010503
-0.0104424
-0.0105958
-0.010625
-0.0105947
-0.0106798
-0.0106542
-0.0106996
-0.010751
-0.0105386
-0.0107191
-0.0107089
-0.0109182
-0.0108301
-0.0108752
-0.0110303
-0.0110609
-0.010694
-0.0106792
-0.0106658
-0.0106655
-0.0107551
-0.0107134
-0.0105948
-0.0106098
-0.0104796
-0.0105044
-0.0106286
-0.0105021
-0.0108666
-0.0108089
-0.0110325
-0.010953
-0.0107085
-0.0105691
-0.0108324
-0.0106761
-0.0109982
-0.0112229
-0.0114592
-0.0116704
-0.0113165
-0.0113158
-0.0117103
-0.0116501
-0.0122308
-0.012314
-0.0134668
-0.0131876
-0.0122224
-0.0120567
-0.0128625
-0.012536
-0.0112553
-0.011145
-0.0115384
-0.0113842
-0.0109977
-0.0108191
-0.0112017
-0.0109946
-0.0118703
-0.0116601
-0.0122474
-0.0119679
-0.0114364
-0.0111971
-0.0116973
-0.0114242
-0.00914129
0.0347898
0.00369966
0.0665333
0.0862448
0.100672
0.108338
0.106391
0.00403054
0.0656168
-0.00905337
0.035239
0.106633
0.10536
0.0867533
0.100419
0.100125
0.0850448
0.106519
0.107948
0.0346491
-0.00957337
0.0676802
0.00425567
0.105877
0.107019
0.101813
0.0905663
0.068564
0.0066061
0.0395327
-0.00749004
-0.0143427
-0.000258015
-0.0135835
-0.0132555
0.0305723
0.0512849
-0.00955825
-0.00224931
-0.0140756
-0.0137436
-0.0149941
-0.0146046
-0.0126333
-0.0115532
-0.0135825
-0.0112008
0.0526568
0.0335986
-0.0024638
-0.0108381
0.0009735
-0.0152209
-0.014797
-0.0143639
-0.0125545
-0.0139964
-0.0123322
-0.0145815
-0.0141554
-0.0139451
-0.0140137
-0.013606
-0.015687
-0.0143758
-0.0166904
-0.0150038
-0.0135891
-0.013029
-0.0140516
-0.0133944
-0.0156165
-0.0146563
-0.0149535
-0.0143337
-0.0140185
-0.0135049
-0.0138703
-0.0134942
-0.01262
-0.0122736
-0.0129255
-0.012549
-0.011964
-0.0116659
-0.0122241
-0.01192
-0.0130954
-0.0127569
-0.013176
-0.0129106
-0.0124592
-0.0121809
-0.0126753
-0.0124584
-0.0144223
-0.0140225
-0.0139558
-0.0137312
-0.0136895
-0.0134319
-0.0135105
-0.0133449
-0.0136756
-0.0134701
-0.0133453
-0.0131643
-0.0133158
-0.0132199
-0.013079
-0.0130487
-0.0132089
-0.0130302
-0.01321
-0.0131241
-0.0128799
-0.0127569
-0.0130786
-0.0130828
-0.0131655
-0.0131742
-0.0130665
-0.0131599
-0.0132463
-0.0134102
-0.0133403
-0.0136645
-0.0138188
-0.014815
-0.0166024
-0.013507
-0.0144147
-0.0161568
-0.0190742
-0.00251555
-0.0109883
0.0223472
-0.0126757
-0.0128467
-0.0133393
-0.0120516
-0.011747
-0.0114878
0.0022152
0.0346841
0.00741078
0.0375612
0.0276723
0.0429517
0.0502475
0.0495859
0.0442345
0.0414149
0.0467324
0.0445568
0.0504703
0.0490705
0.0489512
0.0488253
0.0475881
0.0462776
0.0479791
0.0470249
-0.0119293
-0.011774
-0.011721
-0.0121989
-0.012584
-0.0133698
0.00600502
0.0363547
-0.00248762
0.0296071
-0.0125258
-0.0133422
-0.0148213
-0.0125481
-0.0133764
-0.0147673
-0.0138808
0.0123221
-0.0176939
-0.00959772
0.0490465
0.0488431
0.0500433
0.0489527
0.0479418
0.0470016
0.047402
0.0461531
0.0438072
0.0492041
0.0148693
0.0343466
0.0463227
0.0443895
0.0406113
0.0409596
0.0401299
0.04034
0.0435608
0.0438101
0.0423043
0.0433618
0.0453189
0.0476409
0.045662
0.0459167
0.0465617
0.0468299
0.047031
0.0486872
0.0478106
0.0492036
0.0362106
0.0124506
0.0504581
0.042283
-0.012139
-0.018045
0.00727497
-0.0170593
0.0503565
0.0513401
0.0503264
0.0509945
0.0224201
-0.00975843
0.0275292
-0.00297353
0.0465233
0.0467569
0.0454925
0.0456512
0.0476985
0.0491202
0.0466584
0.0484684
0.0433356
0.0433523
0.0397859
0.039298
0.0444903
0.0469095
0.0385415
0.0354199
0.0503517
0.0511343
0.050599
0.049426
0.0265183
-0.00461298
0.018559
-0.0116698
0.0492744
0.0342756
0.0258409
0.00321043
0.000245178
-0.0162487
-0.0146865
-0.0156797
-0.0123182
-0.0129071
-0.0137483
-0.011963
-0.0123054
-0.0126912
-0.0152399
-0.0170922
-0.0131938
-0.0134884
-0.0115846
-0.011735
-0.0118348
-0.0112396
-0.0112573
-0.0111876
-0.0118592
-0.0115693
-0.0109845
-0.0104988
-0.0105277
0.00477942
-0.0125459
-0.00905658
0.0159028
0.0201388
-0.00420024
-9.62499e-05
-0.0105066
-0.00814555
-0.00953709
-0.00795008
-0.00517832
-0.00288382
-0.00611087
-0.00464067
-0.0109544
-0.0108884
-0.0107302
-0.0107391
-0.0106243
-0.0104255
-0.0104422
-0.00994387
-0.0101183
-0.00966327
-0.0105917
-0.010451
-0.0102391
-0.0105044
-0.0103537
-0.0101418
-0.00994276
-0.0095463
-0.00986663
-0.00952506
-0.00916068
-0.00805817
-0.00903752
-0.00825336
-0.00685128
-0.00587605
-0.00743897
-0.00677915
-0.00904916
-0.0084752
-0.0091257
-0.00869337
-0.00790531
-0.00744701
-0.00828101
-0.00795403
0.0211774
0.0203768
0.00220926
0.00189734
0.0175162
0.0107659
-0.00027255
-0.00388267
-0.00163287
-0.00155812
-0.00380571
-0.00373256
-0.00266445
-0.00484601
-0.00442761
-0.00577025
-0.00259895
-0.0138419
-0.00839229
-0.0115255
-0.0153487
-0.0136142
-0.0122849
-0.0120017
-0.0075588
-0.00966221
-0.00743384
-0.00886087
-0.010597
-0.0108547
-0.00971044
-0.0101289
-0.00530966
-0.00524443
-0.00639048
-0.00633633
-0.00568456
-0.00653771
-0.00661784
-0.00717114
-0.00717498
-0.0071317
-0.00776082
-0.00772939
-0.00731681
-0.00768742
-0.00785837
-0.00811834
-0.00760152
-0.00857915
-0.00787136
-0.00855188
-0.00926756
-0.00969468
-0.00908737
-0.00946447
-0.00816461
-0.00864852
-0.00845696
-0.0088097
-0.00905874
-0.00937072
-0.00912186
-0.00936775
-0.0157984
-0.012695
-0.015729
0.00654781
0.0227145
0.0688285
0.0868279
0.158125
-0.0127103
0.0212611
-0.00940324
0.00686907
0.108786
0.165516
0.0743362
0.146317
0.0646457
0.0176753
0.153959
0.0739421
-0.0125085
-0.0130124
-0.000670725
-0.0123784
0.164405
0.0947196
0.138225
0.0557943
0.0096558
-0.0104064
-0.00481621
-0.0112496
-0.01048
-0.00867997
-0.0125932
-0.0117495
0.0171738
0.0583219
-0.0105901
-0.0126685
-0.0134558
-0.012033
-0.0134035
-0.0122405
-0.010609
-0.0113895
-0.0111831
-0.0111721
0.052671
0.00617036
-0.00934652
-0.00734194
-0.0146826
-0.0110915
-0.0102847
-0.00941042
-0.00934122
-0.00793821
-0.00999051
-0.00915611
-0.0101005
-0.0101351
-0.00992661
-0.00996856
-0.0128767
-0.0127388
-0.0124195
-0.0123699
-0.0127306
-0.0127813
-0.0124098
-0.012502
-0.0111997
-0.0116077
-0.0111452
-0.0114044
-0.0118621
-0.012081
-0.011596
-0.011804
-0.0128756
-0.0130466
-0.0126206
-0.0127998
-0.0133269
-0.0138188
-0.0130614
-0.013507
-0.0122453
-0.0123979
-0.0119535
-0.0120658
-0.0125197
-0.0126757
-0.0120858
-0.0120516
-0.010831
-0.011066
-0.0101917
-0.0106605
-0.0113208
-0.0115589
-0.0110488
-0.0113493
-0.0105827
-0.010829
-0.0103832
-0.0106476
-0.0110901
-0.0113259
-0.0109437
-0.0112035
-0.0117415
-0.01188
-0.0115985
-0.0118133
-0.0119366
-0.0119293
-0.0120024
-0.0121989
-0.0115678
-0.0118225
-0.01147
-0.0117525
-0.0121212
-0.0125258
-0.0120905
-0.0125481
-0.0124758
-0.0117106
-0.0116129
-0.0112375
-0.0109422
-0.0107147
-0.0107962
-0.0105959
-0.0108536
-0.010733
-0.0103043
-0.0103423
-0.010513
-0.0103842
-0.0102827
-0.0102419
-0.010095
-0.0097447
-0.0102565
-0.0100535
-0.0101474
-0.0102409
-0.0101895
-0.0102613
-0.0102165
-0.0101462
-0.0101824
-0.0101737
-0.0102434
-0.0103288
-0.0102478
-0.0103336
-0.00993486
-0.0100528
-0.00970805
-0.0098551
-0.0100844
-0.0101039
-0.00993223
-0.00998886
-0.00958756
-0.00972947
-0.00954189
-0.00965635
-0.00981643
-0.00988613
-0.00972658
-0.00978893
-0.0101124
-0.0101502
-0.0100381
-0.0101056
-0.0102319
-0.0103256
-0.0101992
-0.0103025
-0.00995656
-0.0100458
-0.00986649
-0.00997412
-0.0101566
-0.0102749
-0.0101088
-0.0102502
-0.0105179
-0.0107097
-0.0104719
-0.0106478
-0.0109396
-0.011154
-0.010856
-0.0110515
-0.0104896
-0.0106348
-0.0104671
-0.0105952
-0.010802
-0.0109607
-0.0107348
-0.0108642
-0.0113864
-0.0116392
-0.0112556
-0.011467
-0.0119375
-0.0123182
-0.0116982
-0.011963
-0.0111212
-0.0112782
-0.0109859
-0.0110928
-0.0114334
-0.0115846
-0.0111806
-0.0112396
-0.0104448
-0.0105595
-0.0104183
-0.0105269
-0.0106758
-0.0107783
-0.010628
-0.0107103
-0.0103961
-0.010505
-0.0103867
-0.010503
-0.010598
-0.0106662
-0.0105947
-0.0106542
-0.0108654
-0.0109292
-0.0107701
-0.0108001
-0.0109629
-0.0109544
-0.0107933
-0.0107391
-0.0107057
-0.0107106
-0.0106792
-0.0106655
-0.0106753
-0.0105917
-0.0106098
-0.0105106

SCALARS U float
LOOKUP_TABLE default
0.0167144
0.0163981
0.0160267
0.0156712
0.0162143
0.0154237
0.0172932
0.0169908
0.0168236
0.0162124
0.0153739
0.0164394
0.0156019
0.0168246
0.0170207
0.0177685
0.017449
0.0172681
0.018129
0.0177702
0.0175559
0.0172473
0.0174019
0.0175002
0.0176121
0.016931
0.0161815
0.0176779
0.0171197
0.0174269
0.0180284
0.0186188
0.018331
0.019653
0.0196573
0.018779
0.0196091
0.0177358
0.0182322
0.0178902
0.0183167
0.0188532
0.0195449
0.0188571
0.0194643
0.0183608
0.0179476
0.0176871
0.0184466
0.0179709
0.0176557
0.0175895
0.0176623
0.0175119
0.0175503
0.0183691
0.017829
0.0174513
0.0181144
0.0175131
0.0170605
0.0172549
0.017262
0.0167964
0.0167661
0.0179025
0.0182922
0.0177712
0.0181575
0.018796
0.0193679
0.0186682
0.0192521
0.0174823
0.0179012
0.0169993
0.0174892
0.0184649
0.0191099
0.0181574
0.0189159
0.0206917
0.0209719
0.0216727
0.0222083
0.0204509
0.0212467
0.0225423
0.023315
0.0232482
0.0242355
0.0219431
0.0224901
0.0202509
0.0209171
0.0200873
0.0206746
0.0214904
0.0219204
0.0211715
0.0215222
0.0237323
0.0248864
0.0239493
0.0251964
0.0228412
0.0229615
0.0238963
0.025163
0.0236101
0.0248423
0.0228481
0.022529
0.0221608
0.022174
0.0216671
0.0215432
0.0219454
0.0215007
0.0211046
0.0203841
0.0199582
0.0205175
0.0198602
0.0204474
0.020987
0.0212986
0.0209515
0.0212863
0.0197894
0.0204701
0.0197218
0.020568
0.0210959
0.0215759
0.0214323
0.0222739
0.0213549
0.02104
0.0212987
0.0208013
0.0202402
0.0189784
0.019528
0.0174013
0.0217178
0.0212528
0.0229507
0.0232576
0.019677
0.0165497
0.0227353
0.0210024
0.0177103
0.0170351
0.0164738
0.0172096
0.0164155
0.015668
0.0161011
0.0159998
0.0150847
0.0148017
0.0167443
0.0156986
0.0145865
0.0164144
0.0148915
0.0130631
0.0135422
0.0127603
0.0109837
0.0089133
0.016239
0.0168362
0.0149695
0.015683
0.0176712
0.0186088
0.0167657
0.0179982
0.0125759
0.013325
0.00765333
0.00819476
0.0147962
0.0166292
0.0103833
0.0136121
0.0162317
0.0139394
0.0107923
0.0162784
0.012917
0.00764425
0.0065961
0.00175358
-0.000156732
-0.00967933
0.0168349
0.0123508
0.00455925
0.0187147
0.0139801
0.00547348
-0.00741779
-0.0215555
-0.006523
-0.0170691
-0.00188527
-0.00190817
-0.0169612
-0.0171755
0.00171918
0.00789341
-0.0105695
0.000307465
-0.0302184
-0.0268277
-0.0165027
-0.00440775
-0.0151575
-0.00111021
0.00830403
0.0154204
0.0196101
0.0207106
0.0193272
0.0208009
0.0219582
0.0234508
0.0225155
0.0246912
0.0186855
0.0208966
0.0174931
0.0215434
0.0232564
0.0258921
0.0253295
0.0285974
0.0252487
0.0275398
0.0275269
0.0315683
0.0306158
0.0357399
0.037793
0.0488293
0.028859
0.0324856
0.0309739
0.0321092
0.0376818
0.0461168
0.0324947
0.0322902
0.0156497
0.0236173
0.0135624
0.0269487
0.0305305
0.0355558
0.0385464
0.0471984
0.0134103
0.0275652
0.0181486
0.0199902
0.0409963
0.053555
0.0244639
0.033752
0.0376358
0.0356141
0.0507878
0.0464757
0.0300438
0.0216692
0.0356727
0.0224648
0.062105
0.0595644
0.0467968
0.0542369
0.0458084
0.0291048
0.0471935
0.0317483
0.0231582
0.0243159
0.0226108
0.0236498
0.0220758
0.0215691
0.0220536
0.0228986
0.0215773
0.0221282
0.0211536
0.0209804
0.0209392
0.020352
0.019513
0.0185748
0.020022
0.0202581
0.0182043
0.0191337
0.0212036
0.0213941
0.0208993
0.0207357
0.0210244
0.0211383
0.0205967
0.0201502
0.0202646
0.0196346
0.021143
0.020984
0.0209353
0.0216587
0.0210303
0.022869
0.0220308
0.0219943
0.0237418
0.0236715
0.017339
0.0153557
0.0139429
0.00901831
0.0146047
0.0169397
0.00703647
0.0125596
0.00986736
0.000618772
0.0155214
0.00985024
-0.00093967
0.0104553
0.0138016
0.0248057
0.0215247
0.0256741
0.0231145
0.0320925
0.0272523
0.0266414
0.0345978
0.0319521
0.0279872
0.0428244
0.0357182
0.0471828
0.0466085
0.0398386
0.0526624
0.0449698
0.0198964
0.0191737
0.0194819
0.0187363
0.0206885
0.0202757
0.0190301
0.0183051
0.0185506
0.0178648
0.0197839
0.0192467
0.0216876
0.0211969
0.0231368
0.0223806
0.0206014
0.0199593
0.0215379
0.0206976
0.0180602
0.0174106
0.0175762
0.0169457
0.0187014
0.0181764
0.0171184
0.0164815
0.0167144
0.0160604
0.0176979
0.0172932
0.0193248
0.01873
0.019919
0.0192189
0.0182029
0.0177685
0.0186169
0.018129
0.0253486
0.0239774
0.0285854
0.0259992
0.0226439
0.0214576
0.0238686
0.0221749
0.032261
0.0277964
0.0339824
0.0278945
0.024788
0.0226149
0.0245189
0.0223159
0.0204602
0.0196175
0.0208911
0.0198828
0.0189188
0.0183608
0.0190806
0.0184466
0.0210883
0.0199509
0.0208362
0.0197293
0.0190695
0.0183691
0.018849
0.0181144
0.043147
0.0517629
0.0679453
0.085804
0.0552044
0.0473842
0.0809097
0.0531778