# vtk DataFile Version 2.0
Gerris simulation version 1.3.2 (131206-155120)
ASCII
DATASET UNSTRUCTURED_GRID

POINTS 1089 float
-0.5 0.46875 0
-0.46875 0.46875 0
-0.5 0.5 0
-0.46875 0.5 0
-0.4375 0.46875 0
-0.4375 0.5 0
-0.5 0.4375 0
-0.46875 0.4375 0
-0.4375 0.4375 0
-0.40625 0.46875 0
-0.40625 0.5 0
-0.375 0.46875 0
-0.375 0.5 0
-0.40625 0.4375 0
-0.375 0.4375 0
-0.5 0.40625 0
-0.46875 0.40625 0
-0.4375 0.40625 0
-0.5 0.375 0
-0.46875 0.375 0
-0.4375 0.375 0
-0.40625 0.40625 0
-0.375 0.40625 0
-0.40625 0.375 0
-0.375 0.375 0
-0.34375 0.46875 0
-0.34375 0.5 0
-0.3125 0.46875 0
-0.3125 0.5 0
-0.34375 0.4375 0
-0.3125 0.4375 0
-0.28125 0.46875 0
-0.28125 0.5 0
-0.25 0.46875 0
-0.25 0.5 0
-0.28125 0.4375 0
-0.25 0.4375 0
-0.34375 0.40625 0
-0.3125 0.40625 0
-0.34375 0.375 0
-0.3125 0.375 0
-0.28125 0.40625 0
-0.25 0.40625 0
-0.28125 0.375 0
-0.25 0.375 0
-0.5 0.34375 0
-0.46875 0.34375 0
-0.4375 0.34375 0
-0.5 0.3125 0
-0.46875 0.3125 0
-0.4375 0.3125 0
-0.40625 0.34375 0
-0.375 0.34375 0
-0.40625 0.3125 0
-0.375 0.3125 0
-0.5 0.28125 0
-0.46875 0.28125 0
-0.4375 0.28125 0
-0.5 0.25 0
-0.46875 0.25 0
-0.4375 0.25 0
-0.40625 0.28125 0
-0.375 0.28125 0
-0.40625 0.25 0
-0.375 0.25 0
-0.34375 0.34375 0
-0.3125 0.34375 0
-0.34375 0.3125 0
-0.3125 0.3125 0
-0.28125 0.34375 0
-0.25 0.34375 0
-0.28125 0.3125 0
-0.25 0.3125 0
-0.34375 0.28125 0
-0.3125 0.28125 0
-0.34375 0.25 0
-0.3125 0.25 0
-0.28125 0.28125 0
-0.25 0.28125 0
-0.28125 0.25 0
-0.25 0.25 0
-0.21875 0.46875 0
-0.21875 0.5 0
-0.1875 0.46875 0
-0.1875 0.5 0
-0.21875 0.4375 0
-0.1875 0.4375 0
-0.15625 0.46875 0
-0.15625 0.5 0
-0.125 0.46875 0
-0.125 0.5 0
-0.15625 0.4375 0
-0.125 0.4375 0
-0.21875 0.40625 0
-0.1875 0.40625 0
-0.21875 0.375 0
-0.1875 0.375 0
-0.15625 0.40625 0
-0.125 0.40625 0
-0.15625 0.375 0
-0.125 0.375 0
-0.09375 0.46875 0
-0.09375 0.5 0
-0.0625 0.46875 0
-0.0625 0.5 0
-0.09375 0.4375 0
-0.0625 0.4375 0
-0.03125 0.46875 0
-0.03125 0.5 0
0 0.46875 0
0 0.5 0
-0.03125 0.4375 0
0 0.4375 0
-0.09375 0.40625 0
-0.0625 0.40625 0
-0.09375 0.375 0
-0.0625 0.375 0
-0.03125 0.40625 0
0 0.40625 0
-0.03125 0.375 0
0 0.375 0
-0.21875 0.34375 0
-0.1875 0.34375 0
-0.21875 0.3125 0
-0.1875 0.3125 0
-0.15625 0.34375 0
-0.125 0.34375 0
-0.15625 0.3125 0
-0.125 0.3125 0
-0.21875 0.28125 0
-0.1875 0.28125 0
-0.21875 0.25 0
-0.1875 0.25 0
-0.15625 0.28125 0
-0.125 0.28125 0
-0.15625 0.25 0
-0.125 0.25 0
-0.09375 0.34375 0
-0.0625 0.34375 0
-0.09375 0.3125 0
-0.0625 0.3125 0
-0.03125 0.34375 0
0 0.34375 0
-0.03125 0.3125 0
0 0.3125 0
-0.09375 0.28125 0
-0.0625 0.28125 0
-0.09375 0.25 0
-0.0625 0.25 0
-0.03125 0.28125 0
0 0.28125 0
-0.03125 0.25 0
0 0.25 0
-0.5 0.21875 0
-0.46875 0.21875 0
-0.4375 0.21875 0
-0.5 0.1875 0
-0.46875 0.1875 0
-0.4375 0.1875 0
-0.40625 0.21875 0
-0.375 0.21875 0
-0.40625 0.1875 0
-0.375 0.1875 0
-0.5 0.15625 0
-0.46875 0.15625 0
-0.4375 0.15625 0
-0.5 0.125 0
-0.46875 0.125 0
-0.4375 0.125 0
-0.40625 0.15625 0
-0.375 0.15625 0
-0.40625 0.125 0
-0.375 0.125 0
-0.34375 0.21875 0
-0.3125 0.21875 0
-0.34375 0.1875 0
-0.3125 0.1875 0
-0.28125 0.21875 0
-0.25 0.21875 0
-0.28125 0.1875 0
-0.25 0.1875 0
-0.34375 0.15625 0
-0.3125 0.15625 0
-0.34375 0.125 0
-0.3125 0.125 0
-0.28125 0.15625 0
-0.25 0.15625 0
-0.28125 0.125 0
-0.25 0.125 0
-0.5 0.09375 0
-0.46875 0.09375 0
-0.4375 0.09375 0
-0.5 0.0625 0
-0.46875 0.0625 0
-0.4375 0.0625 0
-0.40625 0.09375 0
-0.375 0.09375 0
-0.40625 0.0625 0
-0.375 0.0625 0
-0.5 0.03125 0
-0.46875 0.03125 0
-0.4375 0.03125 0
-0.5 0 0
-0.46875 0 0
-0.4375 0 0
-0.40625 0.03125 0
-0.375 0.03125 0
-0.40625 0 0
-0.375 0 0
-0.34375 0.09375 0
-0.3125 0.09375 0
-0.34375 0.0625 0
-0.3125 0.0625 0
-0.28125 0.09375 0
-0.25 0.09375 0
-0.28125 0.0625 0
-0.25 0.0625 0
-0.34375 0.03125 0
-0.3125 0.03125 0
-0.34375 0 0
-0.3125 0 0
-0.28125 0.03125 0
-0.25 0.03125 0
-0.28125 0 0
-0.25 0 0
-0.21875 0.21875 0
-0.1875 0.21875 0
-0.21875 0.1875 0
-0.1875 0.1875 0
-0.15625 0.21875 0
-0.125 0.21875 0
-0.15625 0.1875 0
-0.125 0.1875 0
-0.21875 0.15625 0
-0.1875 0.15625 0
-0.21875 0.125 0
-0.1875 0.125 0
-0.15625 0.15625 0
-0.125 0.15625 0
-0.15625 0.125 0
-0.125 0.125 0
-0.09375 0.21875 0
-0.0625 0.21875 0
-0.09375 0.1875 0
-0.0625 0.1875 0
-0.03125 0.21875 0
0 0.21875 0
-0.03125 0.1875 0
0 0.1875 0
-0.09375 0.15625 0
-0.0625 0.15625 0
-0.09375 0.125 0
-0.0625 0.125 0
-0.03125 0.15625 0
0 0.15625 0
-0.03125 0.125 0
0 0.125 0
-0.21875 0.09375 0
-0.1875 0.09375 0
-0.21875 0.0625 0
-0.1875 0.0625 0
-0.15625 0.09375 0
-0.125 0.09375 0
-0.15625 0.0625 0
-0.125 0.0625 0
-0.21875 0.03125 0
-0.1875 0.03125 0
-0.21875 0 0
-0.1875 0 0
-0.15625 0.03125 0
-0.125 0.03125 0
-0.15625 0 0
-0.125 0 0
-0.09375 0.09375 0
-0.0625 0.09375 0
-0.09375 0.0625 0
-0.0625 0.0625 0
-0.03125 0.09375 0
0 0.09375 0
-0.03125 0.0625 0
0 0.0625 0
-0.09375 0.03125 0
-0.0625 0.03125 0
-0.09375 0 0
-0.0625 0 0
-0.03125 0.03125 0
0 0.03125 0
-0.03125 0 0
0 0 0
0.03125 0.46875 0
0.03125 0.5 0
0.0625 0.46875 0
0.0625 0.5 0
0.03125 0.4375 0
0.0625 0.4375 0
0.09375 0.46875 0
0.09375 0.5 0
0.125 0.46875 0
0.125 0.5 0
0.09375 0.4375 0
0.125 0.4375 0
0.03125 0.40625 0
0.0625 0.40625 0
0.03125 0.375 0
0.0625 0.375 0
0.09375 0.40625 0
0.125 0.40625 0
0.09375 0.375 0
0.125 0.375 0
0.15625 0.46875 0
0.15625 0.5 0
0.1875 0.46875 0
0.1875 0.5 0
0.15625 0.4375 0
0.1875 0.4375 0
0.21875 0.46875 0
0.21875 0.5 0
0.25 0.46875 0
0.25 0.5 0
0.21875 0.4375 0
0.25 0.4375 0
0.15625 0.40625 0
0.1875 0.40625 0
0.15625 0.375 0
0.1875 0.375 0
0.21875 0.40625 0
0.25 0.40625 0
0.21875 0.375 0
0.25 0.375 0
0.03125 0.34375 0
0.0625 0.34375 0
0.03125 0.3125 0
0.0625 0.3125 0
0.09375 0.34375 0
0.125 0.34375 0
0.09375 0.3125 0
0.125 0.3125 0
0.03125 0.28125 0
0.0625 0.28125 0
0.03125 0.25 0
0.0625 0.25 0
0.09375 0.28125 0
0.125 0.28125 0
0.09375 0.25 0
0.125 0.25 0
0.15625 0.34375 0
0.1875 0.34375 0
0.15625 0.3125 0
0.1875 0.3125 0
0.21875 0.34375 0
0.25 0.34375 0
0.21875 0.3125 0
0.25 0.3125 0
0.15625 0.28125 0
0.1875 0.28125 0
0.15625 0.25 0
0.1875 0.25 0
0.21875 0.28125 0
0.25 0.28125 0
0.21875 0.25 0
0.25 0.25 0
0.28125 0.46875 0
0.28125 0.5 0
0.3125 0.46875 0
0.3125 0.5 0
0.28125 0.4375 0
0.3125 0.4375 0
0.34375 0.46875 0
0.34375 0.5 0
0.375 0.46875 0
0.375 0.5 0
0.34375 0.4375 0
0.375 0.4375 0
0.28125 0.40625 0
0.3125 0.40625 0
0.28125 0.375 0
0.3125 0.375 0
0.34375 0.40625 0
0.375 0.40625 0
0.34375 0.375 0
0.375 0.375 0
0.40625 0.46875 0
0.40625 0.5 0
0.4375 0.46875 0
0.4375 0.5 0
0.40625 0.4375 0
0.4375 0.4375 0
0.46875 0.46875 0
0.46875 0.5 0
0.5 0.46875 0
0.5 0.5 0
0.46875 0.4375 0
0.5 0.4375 0
0.40625 0.40625 0
0.4375 0.40625 0
0.40625 0.375 0
0.4375 0.375 0
0.46875 0.40625 0
0.5 0.40625 0
0.46875 0.375 0
0.5 0.375 0
0.28125 0.34375 0
0.3125 0.34375 0
0.28125 0.3125 0
0.3125 0.3125 0
0.34375 0.34375 0
0.375 0.34375 0
0.34375 0.3125 0
0.375 0.3125 0
0.28125 0.28125 0
0.3125 0.28125 0
0.28125 0.25 0
0.3125 0.25 0
0.34375 0.28125 0
0.375 0.28125 0
0.34375 0.25 0
0.375 0.25 0
0.40625 0.34375 0
0.4375 0.34375 0
0.40625 0.3125 0
0.4375 0.3125 0
0.46875 0.34375 0
0.5 0.34375 0
0.46875 0.3125 0
0.5 0.3125 0
0.40625 0.28125 0
0.4375 0.28125 0
0.40625 0.25 0
0.4375 0.25 0
0.46875 0.28125 0
0.5 0.28125 0
0.46875 0.25 0
0.5 0.25 0
0.03125 0.21875 0
0.0625 0.21875 0
0.03125 0.1875 0
0.0625 0.1875 0
0.09375 0.21875 0
0.125 0.21875 0
0.09375 0.1875 0
0.125 0.1875 0
0.03125 0.15625 0
0.0625 0.15625 0
0.03125 0.125 0
0.0625 0.125 0
0.09375 0.15625 0
0.125 0.15625 0
0.09375 0.125 0
0.125 0.125 0
0.15625 0.21875 0
0.1875 0.21875 0
0.15625 0.1875 0
0.1875 0.1875 0
0.21875 0.21875 0
0.25 0.21875 0
0.21875 0.1875 0
0.25 0.1875 0
0.15625 0.15625 0
0.1875 0.15625 0
0.15625 0.125 0
0.1875 0.125 0
0.21875 0.15625 0
0.25 0.15625 0
0.21875 0.125 0
0.25 0.125 0
0.03125 0.09375 0
0.0625 0.09375 0
0.03125 0.0625 0
0.0625 0.0625 0
0.09375 0.09375 0
0.125 0.09375 0
0.09375 0.0625 0
0.125 0.0625 0
0.03125 0.03125 0
0.0625 0.03125 0
0.03125 0 0
0.0625 0 0
0.09375 0.03125 0
0.125 0.03125 0
0.09375 0 0
0.125 0 0
0.15625 0.09375 0
0.1875 0.09375 0
0.15625 0.0625 0
0.1875 0.0625 0
0.21875 0.09375 0
0.25 0.09375 0
0.21875 0.0625 0
0.25 0.0625 0
0.15625 0.03125 0
0.1875 0.03125 0
0.15625 0 0
0.1875 0 0
0.21875 0.03125 0
0.25 0.03125 0
0.21875 0 0
0.25 0 0
0.28125 0.21875 0
0.3125 0.21875 0
0.28125 0.1875 0
0.3125 0.1875 0
0.34375 0.21875 0
0.375 0.21875 0
0.34375 0.1875 0
0.375 0.1875 0
0.28125 0.15625 0
0.3125 0.15625 0
0.28125 0.125 0
0.3125 0.125 0
0.34375 0.15625 0
0.375 0.15625 0
0.34375 0.125 0
0.375 0.125 0
0.40625 0.21875 0
0.4375 0.21875 0
0.40625 0.1875 0
0.4375 0.1875 0
0.46875 0.21875 0
0.5 0.21875 0
0.46875 0.1875 0
0.5 0.1875 0
0.40625 0.15625 0
0.4375 0.15625 0
0.40625 0.125 0
0.4375 0.125 0
0.46875 0.15625 0
0.5 0.15625 0
0.46875 0.125 0
0.5 0.125 0
0.28125 0.09375 0
0.3125 0.09375 0
0.28125 0.0625 0
0.3125 0.0625 0
0.34375 0.09375 0
0.375 0.09375 0
0.34375 0.0625 0
0.375 0.0625 0
0.28125 0.03125 0
0.3125 0.03125 0
0.28125 0 0
0.3125 0 0
0.34375 0.03125 0
0.375 0.03125 0
0.34375 0 0
0.375 0 0
0.40625 0.09375 0
0.4375 0.09375 0
0.40625 0.0625 0
0.4375 0.0625 0
0.46875 0.09375 0
0.5 0.09375 0
0.46875 0.0625 0
0.5 0.0625 0
0.40625 0.03125 0
0.4375 0.03125 0
0.40625 0 0
0.4375 0 0
0.46875 0.03125 0
0.5 0.03125 0
0.46875 0 0
0.5 0 0
-0.5 -0.03125 0
-0.46875 -0.03125 0
-0.4375 -0.03125 0
-0.5 -0.0625 0
-0.46875 -0.0625 0
-0.4375 -0.0625 0
-0.40625 -0.03125 0
-0.375 -0.03125 0
-0.40625 -0.0625 0
-0.375 -0.0625 0
-0.5 -0.09375 0
-0.46875 -0.09375 0
-0.4375 -0.09375 0
-0.5 -0.125 0
-0.46875 -0.125 0
-0.4375 -0.125 0
-0.40625 -0.09375 0
-0.375 -0.09375 0
-0.40625 -0.125 0
-0.375 -0.125 0
-0.34375 -0.03125 0
-0.3125 -0.03125 0
-0.34375 -0.0625 0
-0.3125 -0.0625 0
-0.28125 -0.03125 0
-0.25 -0.03125 0
-0.28125 -0.0625 0
-0.25 -0.0625 0
-0.34375 -0.09375 0
-0.3125 -0.09375 0
-0.34375 -0.125 0
-0.3125 -0.125 0
-0.28125 -0.09375 0
-0.25 -0.09375 0
-0.28125 -0.125 0
-0.25 -0.125 0
-0.5 -0.15625 0
-0.46875 -0.15625 0
-0.4375 -0.15625 0
-0.5 -0.1875 0
-0.46875 -0.1875 0
-0.4375 -0.1875 0
-0.40625 -0.15625 0
-0.375 -0.15625 0
[...]
POINT_DATA 1089
SCALARS T float
LOOKUP_TABLE default
0
0
0
0
0
0
0
0
0
0
0
0
0
0
0
0
0
0
0
0
0
0
0
0
0
0
0
0
0
0
0
0
0
0
0
0
0
0
0
0
0
0
0
0
0
0
0
0
0
0
0
0
0
0
0
0
0
0
0
0
0
0
0
0
0
0
0
0
0
0
0
0
0
0
0
0
0
0
0
0
0
0
0
0
0
0
0
0
0
0
0
0
0
0
0
0
0
0
0
0
0
0
0
0
0
0
0
0
0
0
0
0
0
0
0
0
0
0
0
0
0
0
0
0
0
0
0
0
0
0
0
0
0
0
0
0
0
0
0
0
0
0
0
0
0
0
0
0
0
0
0
0
0
0
0
0
0
0
0
0
0
0
0
0
0
0
0
0
0
0
0
0
0
0
0
0
0
0
0
0
0
0
0
0
0
0
0
0
0
0
0
0
0
0
0
0
0
0
0
0
0
0
0
0
0
0
0
0
0
0
0
0
0.000136493
0
0.0179796
0.114522
0.375026
0
0.10921
0.0279282
0.37824
0.473595
0.857047
0.850312
1
0
0
0
0
0
0
0
0
0
0
0
0
0
0
0
0
0
0
0
0
0
0
0
0
0
0
0
0
0
0
0
0
0.0921454
0.138525
0.584807
0.638525
0.0722158
0.00785697
0.544367
0.298511
0.992661
1
1
1
0.972152
0.778627
1
0.987974
0
0
0.068502
0
0
0
0
0
0.345987
0.0395115
0.700665
0.212692
0
0
0
0
0
0
0
0
0
0
0
0
0
0
0
0
0
0
0
0
0
0
0
0
0
0
0
0
0
0
0
0
0
0
0
0
0
0
0
0
0
0
0
0
0
0
0
0
0
0
0
0
0
0
0
0.0465768
0.0198429
0.114064
0.298691
0.596336
0
0
0
0
0
0
0
0
0.193399
0.132966
0.693399
0.623996
0.0337882
0
0.379166
0.104348
0
0
0
0
0
0
0
0
0
0
0
0
0
0
0
0
0
0
0
0
0
0
0
0
0
0
0
0
0
0
0
0
0
0
0
0
0
0
0
0
0
0
0
0
0
0
0
0
0
0
0
0
0
0
0
0
0
0
0
0
0
0
0
0
0
0
0
0
0
0
0
0
0
0.209166
0
0.336485
0.691438
0.982271
0.836485
1
0
0.253902
0
0.0800058
0.753866
0.999964
0.419898
0.794812
1
0.99103
1
1
0.835743
0.359146
0.990365
0.54252
1
1
0.935095
0.902869
0.956686
0.499405
0.668453
0.250756
0
0
0
0
0.0899275
0.294848
0
0
0
0
0
0
0
0
0
0
0.435095
0.402869
0
0
0.211767
0.0390732
0
0
0
0
0
0
0
0
0
0
0.0144327
0
0.0521545
0
0
0
0
0
0.0427188
0
0.00499696
0
0
0
0
0
0
0
0
0
0
0
0
0
0
0
0
0
0
0
0
0
0
0
0
0
0
0
0
0
0
0
0
0
0
0
0
0
0
0
0
0
0
0
0
0
0
0
0
0
0
0
0
0
0
0
0
0
0
0
0
0
0
0
0
0
0
0
0
0
0
0
0
0
0.150437
0.641677
0.308654
0.808654
0.991239
1
1
1
0.40553
0.90553
0.444643
0.944643
1
1
1
1
0
0
0
0
0
0
0
0
0
0
0
0
0
0
0
0
0
0
0
0
0.427855
0.927855
0.351442
0.851442
1
1
1
1
0.208639
0.708639
0.0598797
0.483914
1
1
0.924034
1
1
1
1
1
1
1
1
1
1
1
1
1
1
1
1
1
0.91942
0.436327
0.996239
0.57786
0.0169074
0
0.0816208
0
1
0.654272
1
0.679018
0.154272
0
0.179018
0
1
1
1
1
1
1
1
1
1
1
1
1
1
1
1
0.99604
1
0.652893
0.996313
0.573909
0.152893
0
0.0775953
0
0.923135
0.437296
0.725573
0.229533
0.0141611
0
0
0
0
0
0
0
0
0
0
0
0
0
0
0
0
0
0
0
0
0
0
0
8.49038e-05
0.193748
0
0.0196293
0.630332
0.936669
0.208408
0.509762
0
0
0
0
0.00210973
0.0730939
0
0
0
0
0
0
0
0
0
0
0
0
0
0
0
0
0
0
0
0
0
0
0
0
0
0
0
0
0
0
0
0
0
0
0
0
0
0
1
1
0.695105
0.733173
0.991048
0.835714
0.630139
0.369714
0.195105
0.233173
0
0
0.139091
0.0300397
0
0
0.397378
0.0527117
0.0986267
0
0
0
0
0
0
0
0
0
0
0
0
0
0
0
0
0
0
0
0
0
0
0
0
0
0
0
0
0
0
0
0
0
0
0
0
0
0
0
0
0
0
0
0
0
0
0.00258921
0
0.0633721
0.142337
0.372088
0.453119
0.872088
0
0.127207
0
0.0694718
0.627207
1
0.478754
0.904983
0.40214
0.186455
0.90214
0.52748
0.0166558
0
0.107681
0
1
0.697966
0.916179
0.52904
0.197966
0
0.108562
0
0
0.00304784
0
0
0.162585
0.410964
0.00025479
0.005981
0
0
0
0
0
0
0
0
0.465333
0.215527
0.049154
0.0434278
0.00162182
0
0
0
0
0
0
0
0
0
0
0
0
0
0
0
0
0
0
0
0
0
0
0
0
0
0
0
0
0
0
0
0
0
0
0
0
0
0
0
0
0
0
0
0
0
0
0
0
0
0
0
0
0
0
0
0
0
0
0
0
0
0
0
0
0
0
0
0
0
0
0
0
0
0
0
0
0
0
0
0
0
0
0
0
0
0
0
0
0
0
0
0
0
0
0
0
0
0
0
0
0
0
0
0
0
0
0
0
0
0
0
0
0
0
0
0
0
0
0
0
0
0
0
0
0
0
0
0
0
0
0
0
0
0
0
0
0
0
0
0
0
0
0
0
0
0
0
0
0
0
0
0
0
0
0
0
0
0
0
0
0
0
0
0
0
0
0
0
0
0
0
0
0
0
0
0
0
0
0
0
0
0
0
0
0
0
0
0
0
0
0
0
0
0
0
0
0
0
0
0
0
0
0

SCALARS P float
LOOKUP_TABLE default
-0.0102691
-0.0106202
-0.0100408
-0.0104099
-0.0110019
-0.0108215
-0.0104602
-0.0107901
-0.0111461
-0.0114147
-0.0112749
-0.0118531
-0.011767
-0.0115265
-0.0119248
-0.0106183
-0.0109288
-0.0112637
-0.0107489
-0.0110413
-0.0113598
-0.0116205
-0.0119918
-0.011701
-0.0120578
-0.0123072
-0.0122916
-0.0127554
-0.0128242
-0.0123297
-0.0127219
-0.0131712
-0.0133353
-0.0135154
-0.013771
-0.0130784
-0.0133691
-0.0123662
-0.012726
-0.0124185
-0.0127664
-0.0130505
-0.0133148
-0.0130817
-0.0133417
-0.0108557
-0.0111299
-0.0114355
-0.0109366
-0.0111918
-0.0114875
-0.0117688
-0.0121228
-0.01182
-0.0121828
-0.0109869
-0.0112206
-0.0115082
-0.0109942
-0.0112036
-0.0114843
-0.0118463
-0.0122295
-0.0118337
-0.0122491
-0.0124859
-0.0128413
-0.0125645
-0.0129475
-0.0131687
-0.0134445
-0.0133093
-0.0136226
-0.0126469
-0.0130801
-0.0127213
-0.0132316
-0.013503
-0.013881
-0.0137499
-0.0142306
-0.0137462
-0.0140681
-0.0138263
-0.0141664
-0.0135641
-0.0136386
-0.0137377
-0.0140347
-0.0135004
-0.0137125
-0.0135813
-0.0134023
-0.0134955
-0.0135738
-0.013525
-0.0136155
-0.0135423
-0.0134067
-0.0136076
-0.0135062
-0.013146
-0.0132542
-0.0127079
-0.0127109
-0.0131215
-0.0127604
-0.0122161
-0.0121266
-0.0116917
-0.0115306
-0.0123392
-0.0118694
-0.0131811
-0.0128794
-0.013324
-0.0130717
-0.0125154
-0.0120904
-0.0127597
-0.0123785
-0.0136462
-0.0137566
-0.0138595
-0.013997
-0.0137716
-0.0136977
-0.0140319
-0.0139762
-0.0141739
-0.0143458
-0.0146102
-0.0148246
-0.0143934
-0.0143398
-0.0148686
-0.0147857
-0.0135518
-0.013346
-0.0138565
-0.0136941
-0.0130913
-0.0127714
-0.013507
-0.013284
-0.0142297
-0.0141058
-0.0146525
-0.014552
-0.0140013
-0.0139351
-0.0145492
-0.0147575
-0.0109403
-0.0111233
-0.0113977
-0.0108023
-0.0109583
-0.0112254
-0.0117632
-0.0122221
-0.0116078
-0.0121177
-0.0105604
-0.0106886
-0.0109443
-0.0101979
-0.0102934
-0.0105246
-0.0113398
-0.0119046
-0.0109142
-0.0115115
-0.0127698
-0.013391
-0.0127613
-0.0135318
-0.0140523
-0.0146929
-0.0144021
-0.0152968
-0.0126616
-0.0136248
-0.0123672
-0.013539
-0.0147922
-0.0160783
-0.0151351
-0.0171369
-0.00970904
-0.00976463
-0.00995309
-0.00910183
-0.00909792
-0.0092067
-0.0103083
-0.0109049
-0.00946417
-0.0099576
-0.00839538
-0.00831181
-0.00829506
-0.00763812
-0.00746941
-0.0073126
-0.00837083
-0.00859905
-0.00719617
-0.00713942
-0.0118365
-0.0132356
-0.0107739
-0.012084
-0.0154308
-0.017109
-0.00688459
0.00939518
-0.00900857
-0.00389911
-0.00572014
0.0121491
0.016891
0.0430275
0.0383215
0.0493763
-0.0152064
-0.0154723
-0.0160313
-0.0163704
-0.0154794
-0.0153064
-0.0162834
-0.0159121
-0.0171796
-0.0176323
-0.0189525
-0.0196069
-0.0173572
-0.0166412
-0.0189349
-0.0175625
-0.0150786
-0.0149265
-0.0154619
-0.0151112
-0.0149458
-0.0153377
-0.0149472
-0.0151282
-0.0158244
-0.0151457
-0.0161509
-0.0150422
-0.01466
-0.014406
-0.0142326
-0.0136569
-0.0134792
-0.0104295
0.0250914
0.029433
-0.0151408
-0.0181827
0.0212091
0.00279464
0.0550705
0.0561629
0.0512653
0.0515715
0.0525466
0.0358945
0.0505209
0.047273
-0.0164354
-0.014798
-0.0116409
-0.014049
-0.0137294
-0.0130267
-0.0129215
-0.0123155
0.00696974
-0.0101606
0.0280633
0.000916946
-0.0115232
-0.0113702
-0.00966051
-0.0101211
-0.0111494
-0.0109392
-0.0106027
-0.0103689
-0.0113613
-0.01082
-0.0100665
-0.00983099
-0.00957412
-0.00935256
-0.0102597
-0.00971998
-0.0116073
-0.0110536
-0.0119215
-0.0113473
-0.0104379
-0.00979814
-0.0106456
-0.00982423
-0.00915105
-0.00894986
-0.00885842
-0.00865983
-0.00924057
-0.00893157
-0.00870018
-0.00848805
-0.00865295
-0.00841956
-0.00879606
-0.00878861
-0.00920066
-0.00885581
-0.00900713
-0.00859049
-0.00876977
-0.00884033
-0.00859703
-0.00881068
-0.0123694
-0.0117979
-0.0129955
-0.0125046
-0.0109936
-0.00984259
-0.0116002
-0.0098439
-0.0138755
-0.0137205
-0.0152285
-0.0100128
-0.0103634
0.00285564
0.0224444
0.0597907
-0.00858632
-0.00800758
-0.00776078
-0.00686933
-0.00821724
-0.00872542
-0.00753583
-0.00866015
0.0141527
0.00867221
0.0700985
0.0619699
-0.00307151
-0.00875682
0.0340575
0.00158956
-0.00869981
-0.00844508
-0.00880759
-0.00853856
-0.00887664
-0.00901342
-0.0089689
-0.0086915
-0.00916568
-0.00888772
-0.00919421
-0.0093976
-0.00899813
-0.00918009
-0.00907762
-0.00932368
-0.00938905
-0.00960115
-0.00956818
-0.00978864
-0.00939652
-0.0091232
-0.00965702
-0.00939312
-0.00962704
-0.00987899
-0.00994791
-0.00969731
-0.0102691
-0.0100313
-0.0101566
-0.0104602
-0.00982859
-0.0100701
-0.0100109
-0.0102379
-0.0103327
-0.0106183
-0.0104825
-0.0107489
-0.00916437
-0.00949305
-0.00934551
-0.0097438
-0.00976963
-0.00998676
-0.0100233
-0.01021
-0.00973974
-0.0101446
-0.0109864
-0.0109507
-0.0103672
-0.0104786
-0.010887
-0.0108118
-0.0101909
-0.0103928
-0.0103741
-0.0105361
-0.0106121
-0.0108557
-0.0107206
-0.0109366
-0.0105688
-0.0106693
-0.010771
-0.0107817
-0.0108057
-0.0109869
-0.010855
-0.0109942
-0.0162351
0.00970149
-0.0157626
0.0265009
0.0711748
0.106599
0.0892761
0.108355
-0.0143784
0.0172586
-0.0131817
-0.00271359
0.0776195
0.105931
0.0382172
0.0814072
0.105814
0.103522
0.106907
0.107152
0.0865354
0.0298703
0.108296
0.0519839
0.105674
0.107152
0.0967938
0.0944859
0.104389
0.0466204
0.0677396
0.016178
-0.0124753
-0.0117412
-0.0119597
-0.011602
0.000177917
0.0244784
-0.0110208
-0.010353
-0.0114698
-0.0116725
-0.0108183
-0.0116653
-0.0118111
-0.012145
-0.0125469
-0.0141295
0.0400827
0.0361992
-0.009988
-0.0107396
0.0129521
-0.00822414
-0.0116268
-0.0116002
-0.0123923
-0.0123106
-0.0154459
-0.0144438
-0.0117721
-0.0109476
-0.0119774
-0.0101539
-0.0116152
-0.0120474
-0.00908537
-0.0128357
-0.0115035
-0.0111513
-0.0119272
-0.0113528
-0.010408
-0.0131298
-0.0135395
-0.0126764
-0.0120489
-0.0113576
-0.0117324
-0.0110864
-0.0109423
-0.0108458
-0.0110056
-0.0108166
-0.0108476
-0.0109403
-0.010754
-0.0108023
-0.0109206
-0.0106653
-0.0106436
-0.0103659
-0.0105515
-0.0105604
-0.010222
-0.0101979
-0.0123984
-0.0116563
-0.0112422
-0.0107356
-0.0110309
-0.0105398
-0.0102669
-0.00987782
-0.0103213
-0.00980588
-0.00925515
-0.00873163
-0.0094079
-0.00910094
-0.00842537
-0.00822652
-0.0101663
-0.00991035
-0.0095677
-0.00933906
-0.0097594
-0.00970904
-0.00918446
-0.00910183
-0.00885878
-0.00866797
-0.00807325
-0.00793571
-0.00851525
-0.00839538
-0.00779346
-0.00763812
-0.00686807
-0.00660658
-0.00628879
-0.00616487
-0.0058177
-0.00532994
-0.0059203
-0.00549462
-0.00464269
-0.0037074
-0.00561259
-0.00522884
-0.00463076
-0.00529203
-0.00492741
-0.00432209
-0.00373266
-0.00244103
-0.00341849
-0.00210246
0.00185083
0.0257501
0.0103649
0.0329174
0.0441901
0.0468273
0.0430459
0.0450018
0.0151465
0.0365324
0.0170405
0.0382235
0.0421721
0.044016
0.0420752
0.0437825
-0.0052203
-0.0049206
-0.00439799
-0.00538599
-0.00518728
-0.00480157
-0.00362584
-0.00248956
-0.00421245
-0.0032985
-0.00575905
-0.00569113
-0.00549628
-0.00627319
-0.00635363
-0.00638228
-0.00518247
-0.00464971
-0.00640899
-0.00642475
0.0163524
0.0379823
0.0127674
0.0351721
0.042473
0.0441468
0.0432132
0.0450602
0.00547395
0.0293032
-0.0035482
0.0182694
0.0446881
0.0467888
0.0429266
0.0494788
0.048206
0.0483971
0.0461648
0.0462723
0.0474489
0.0454353
0.0452989
0.0433518
0.0450367
0.0450517
0.0446898
0.0446402
0.0440323
0.0420148
0.0435922
0.0415495
0.0383407
0.0134503
0.0404335
0.0203051
-0.00683539
-0.00858846
-0.00212103
-0.00705364
0.0391796
0.0233075
0.0387064
0.0242857
0.00220486
-0.00589037
0.00380712
-0.00511033
0.0450386
0.0449782
0.0460704
0.0460728
0.0439017
0.0418215
0.0449605
0.0428239
0.0479431
0.048061
0.0508312
0.0511189
0.0469871
0.0448577
0.0500817
0.0477844
0.0388996
0.0234686
0.0394814
0.0206519
0.003014
-0.00473974
-5.99717e-05
-0.00481081
0.0378423
0.0149162
0.0303328
0.00412888
-0.00363462
-0.00540663
-0.00634486
-0.00662904
-0.00686577
-0.0070803
-0.00730649
-0.00746791
-0.00778674
-0.00815833
-0.00761739
-0.00807629
-0.00865808
-0.00936438
-0.00804309
-0.00842786
-0.00888421
-0.00856302
-0.00897959
-0.00946957
-0.00947551
-0.0102638
-0.0100781
-0.0108434
-0.00880062
0.00103294
-0.01044
-0.0109148
0.0272869
0.0487554
-0.000371453
0.0198301
-0.0113947
-0.0129901
-0.011854
-0.0131394
-0.0150803
-0.0120436
-0.0147623
-0.0166051
-0.00902262
-0.0094468
-0.00993905
-0.00941773
-0.00983251
-0.0103052
-0.0105293
-0.011239
-0.0108537
-0.011487
-0.00975423
-0.0101506
-0.0105944
-0.0100313
-0.0104099
-0.0108215
-0.011095
-0.0116539
-0.0112749
-0.011767
-0.0121131
-0.0131386
-0.0122227
-0.0130366
-0.0143057
-0.0154958
-0.0139034
-0.0147235
-0.0122725
-0.0129244
-0.0122916
-0.0128242
-0.0135777
-0.014159
-0.0133353
-0.013771
0.0548014
0.0553033
0.0341801
0.0374703
0.0537571
0.040812
0.0288837
0.00931062
-0.00395036
-0.00130605
-0.0181323
-0.0186869
-0.0082965
-0.015179
-0.017789
-0.0161911
0.0120091
-0.00718371
-0.00798434
-0.0120044
-0.00867467
-0.00802851
-0.0102789
-0.0091603
-0.0149302
-0.0126506
-0.0145127
-0.0128693
-0.0110871
-0.00993091
-0.0115614
-0.0104955
-0.0164275
-0.0167669
-0.015327
-0.0155326
-0.0162548
-0.015249
-0.0152212
-0.0145606
-0.0145687
-0.0147045
-0.0140681
-0.0141664
-0.0145055
-0.0140542
-0.0140347
-0.0137125
-0.0140866
-0.0128839
-0.0137273
-0.0128256
-0.0118163
-0.0108822
-0.0119592
-0.0111561
-0.0134467
-0.0127565
-0.0132542
-0.0127109
-0.01205
-0.0113612
-0.0121266
-0.0115306
-0.00986577
-0.0105391
-0.00912805
0.00111646
0.0138741
0.0549229
0.0689232
0.143864
-0.00876467
0.0116569
-0.00773035
0.00182274
0.0958891
0.15832
0.0693436
0.141157
0.0585604
0.0188005
0.147522
0.0777122
-0.00862812
-0.00867993
0.00765005
-0.00668626
0.150855
0.0960316
0.131867
0.0662765
0.0265633
0.0023328
0.016002
0.00476593
-0.00664932
-0.00788864
-0.00608411
-0.00698835
0.0181399
0.0609492
-0.00653629
-0.00575717
-0.00593925
-0.00614959
-0.00653332
-0.0063193
-0.00522364
-0.00482462
-0.00542116
-0.00478593
0.0617127
0.0226565
0.000210518
0.002574
-0.000409922
-6.37313e-05
-0.000249318
3.34433e-05
-0.000854651
0.00139931
-0.00238525
-0.000916474
-0.000738555
-0.001102
-0.00190007
-0.00224418
-0.00771321
-0.0073302
-0.00572626
-0.00565364
-0.00722957
-0.00722277
-0.0059072
-0.00618476
-0.000932368
-0.00304553
0.000870856
-0.00186648
-0.00431039
-0.0051125
-0.00343987
-0.00445778
-0.00721212
-0.00716258
-0.00636433
-0.00642926
-0.00705105
-0.00686807
-0.00636491
-0.00616487
-0.00557011
-0.0057884
-0.00505397
-0.00536789
-0.00579818
-0.00561259
-0.00544
-0.00529203
-0.000890338
-0.0022458
-0.00126215
-0.00246123
-0.0033721
-0.00426081
-0.00348944
-0.00430401
-0.00220004
-0.00313179
-0.00308739
-0.00380214
-0.00394724
-0.00462124
-0.0044688
-0.00503944
-0.00484779
-0.00519349
-0.00487485
-0.00523853
-0.00531286
-0.0052203
-0.00540538
-0.00538599
-0.00513073
-0.00548743
-0.00550387
-0.00586121
-0.00569439
-0.00575905
-0.00611442
-0.00627319
-0.00739348
-0.00683333
-0.00827438
-0.00754703
-0.00597332
-0.00530286
-0.00674199
-0.00608187
-0.00899931
-0.00822339
-0.00959767
-0.00883364
-0.00747019
-0.00684275
-0.00813324
-0.00754574
-0.00394878
-0.00307199
-0.00518098
-0.0045725
-0.00338833
-0.00356285
-0.00459251
-0.00465648
-0.00618442
-0.00573029
-0.00700723
-0.00662582
-0.00562709
-0.00562442
-0.006468
-0.00642405
-0.0100594
-0.00934029
-0.010419
-0.00975571
-0.00869287
-0.00814592
-0.00915691
-0.00864491
-0.0107038
-0.0100927
-0.0109392
-0.0103689
-0.00953195
-0.00904452
-0.00983099
-0.00935256
-0.00767738
-0.00733978
-0.00821689
-0.00790439
-0.00716298
-0.00709683
-0.0077222
-0.00764537
-0.00863846
-0.00834162
-0.00894986
-0.00865983
-0.00816235
-0.00808504
-0.00848805
-0.00841956
-0.00409332
-0.00459759
-0.00498321
-0.00534082
-0.00510991
-0.00557499
-0.00573985
-0.00612787
-0.00581437
-0.00606385
-0.00653031
-0.00670856
-0.00637125
-0.00669435
-0.006952
-0.00722829
-0.00598554
-0.00633423
-0.00649776
-0.00684064
-0.00662387
-0.00686577
-0.00715994
-0.00746791
-0.00702602
-0.00735788
-0.00753032
-0.00785079
-0.0076932
-0.00804309
-0.00819207
-0.00856302
-0.0071533
-0.00728496
-0.00767504
-0.0077795
-0.00748342
-0.0077246
-0.00794989
-0.00816742
-0.00810522
-0.0081975
-0.00844508
-0.00853856
-0.00835317
-0.00855596
-0.0086915
-0.00888772
-0.00800186
-0.00830888
-0.00842585
-0.00871956
-0.00864705
-0.00902262
-0.00904895
-0.00941773
-0.00880042
-0.00908144
-0.0091232
-0.00939312
-0.00939883
-0.00975423
-0.00969731
-0.0100408

SCALARS U float
LOOKUP_TABLE default
0.0182185
0.0181373
0.0179492
0.0178323
0.0180747
0.0177123
0.0184747
0.0184174
0.0183785
0.0180574
0.0176323
0.0181177
0.0176345
0.0183827
0.0184551
0.0187389
0.018679
0.018637
0.0190167
0.0189255
0.0188561
0.0186358
0.0186955
0.0188292
0.0188606
0.0182845
0.0177617
0.018591
0.0180815
0.0186162
0.0188834
0.019051
0.0186352
0.0196454
0.0194052
0.0192601
0.0197303
0.0188312
0.019052
0.0189616
0.019136
0.0193572
0.0197339
0.0193806
0.0196839
0.0193066
0.0191548
0.0190358
0.0195976
0.0193569
0.0191688
0.0189666
0.0189589
0.0190439
0.0189893
0.0198584
0.0195102
0.0192389
0.0200495
0.0195851
0.0192196
0.0190475
0.0189379
0.0189472
0.0187644
0.0190204
0.0191511
0.0190091
0.0191004
0.0193451
0.01959
0.0192543
0.0194563
0.0189123
0.0189669
0.0186747
0.0186832
0.0190929
0.0192733
0.0187923
0.0189884
0.0203294
0.0203235
0.0210281
0.0212564
0.0202642
0.0208179
0.0216828
0.0221045
0.0222485
0.0227946
0.0213549
0.0218488
0.0201613
0.0206124
0.0200295
0.0203995
0.0210644
0.021503
0.0207772
0.0211546
0.0226926
0.023264
0.0230061
0.0234972
0.0222842
0.0226612
0.0232053
0.0235361
0.0233092
0.0234373
0.0229898
0.0232806
0.0219233
0.0223379
0.0215323
0.0219364
0.022764
0.0232319
0.0224018
0.023018
0.0198704
0.0201713
0.019688
0.0199333
0.0204755
0.0207744
0.0201682
0.0203765
0.019484
0.0197056
0.0192383
0.019515
0.0199005
0.0200388
0.0197523
0.0198878
0.0210678
0.0213957
0.0205538
0.0207535
0.0218209
0.0225468
0.0210767
0.0218999
0.0201151
0.0201807
0.0199066
0.0198106
0.0203717
0.0211701
0.019715
0.0198676
0.0201224
0.0195436
0.0190681
0.020029
0.0193384
0.0187109
0.0186789
0.0183667
0.018111
0.0175216
0.0197515
0.0189277
0.018046
0.0193178
0.0182876
0.0169692
0.0170369
0.0158697
0.0152377
0.0130853
0.0181463
0.018056
0.016988
0.0166484
0.0181443
0.0184261
0.0166948
0.0172282
0.0146824
0.0138767
0.0109306
0.00981915
0.0139639
0.0151459
0.0108304
0.0136625
0.0188266
0.0174978
0.015562
0.0184172
0.016796
0.0142715
0.0128765
0.00962958
0.0108297
0.00709322
0.0183951
0.0167641
0.0141796
0.0190739
0.0180496
0.0164147
0.0109133
0.00805055
0.0146596
0.013835
0.00693049
0.00683641
0.00504108
0.00658289
0.0101806
0.0145509
0.00964596
0.0115915
0.00755138
0.00905603
0.0146641
0.0149883
0.00878504
0.00831779
0.0136013
0.0143622
0.0188619
0.0194007
0.018186
0.0194424
0.0198883
0.0201717
0.0206273
0.0213806
0.0171618
0.0197063
0.016876
0.0200842
0.0221722
0.0239494
0.0233581
0.0265495
0.0202057
0.0198884
0.0216167
0.0211184
0.0191904
0.0177956
0.0197655
0.0169638
0.0248324
0.0244061
0.0291254
0.0295493
0.0227662
0.0198942
0.0279074
0.0255309
0.0175894
0.0201757
0.0145466
0.0200865
0.0230296
0.0267228
0.0251636
0.0280714
0.0126488
0.0201609
0.0175269
0.0196279
0.027227
0.0305354
0.0222582
0.025182
0.0314449
0.0340665
0.031189
0.0346178
0.033183
0.0310511
0.035641
0.0345158
0.0297231
0.0302526
0.0244303
0.0232305
0.0327102
0.0340769
0.0253442
0.0290667
0.0233108
0.0232331
0.0231512
0.0229048
0.0235055
0.0235666
0.0227505
0.0224164
0.021984
0.0217181
0.0233169
0.0224606
0.0237181
0.0241205
0.0238196
0.0248224
0.0242025
0.0232886
0.0256339
0.0247386
0.0208958
0.0208482
0.0197603
0.0199751
0.0210269
0.0194799
0.0188518
0.0192389
0.0183514
0.0187489
0.0183094
0.017824
0.0213347
0.0191495
0.0219547
0.0187396
0.0175941
0.0172017
0.0166015
0.016498
0.023774
0.0259233
0.0237411
0.0276577
0.0281582
0.0272506
0.0315175
0.0297671
0.0233239
0.0278761
0.0208229
0.0226525
0.0314517
0.0285154
0.023947
0.0236795
0.0230291
0.0181679
0.0235339
0.0169956
0.0150705
0.0155146
0.0127981
0.0140037
0.022823
0.0177526
0.0242237
0.0244381
0.0137951
0.0147244
0.0229856
0.0223219
0.0181687
0.0184788
0.0181623
0.0183526
0.0177984
0.017966
0.018239
0.0183099
0.01831
0.0182844
0.0181996
0.0183819
0.0174596
0.0178636
0.0173081
0.0180339
0.0182766
0.0185606
0.0186131
0.0189416
0.0183495
0.0182489
0.0183411
0.0181828
0.0184981
0.0185382
0.0182932
0.0180862
0.0182185
0.0179793
0.0185235
0.0184747
0.018733
0.018796
0.0191109
0.0191442
0.0187882
0.0187389
0.0191008
0.0190167
0.0173824
0.01861
0.0175387
0.0196137
0.019323
0.0195968
0.0204651
0.0205671
0.0185203
0.021084
0.0229357
0.0238301
0.0219098
0.0217249
0.0237419
0.0229816
0.0196684
0.0195982
0.02042
0.0201566
0.019465
0.0193066
0.0198718
0.0195976
0.0212658
0.0207503
0.0221045
0.0212996
0.0202745
0.0198584
0.0206167
0.0200495
0.0154764
0.0108221
0.0115323
0.0015781
0.0078106
0.0132136
-0.00464011
0.0041202
0.0149241