# vtk DataFile Version 2.0
Gerris simulation version 1.3.2 (131206-155120)
ASCII
DATASET UNSTRUCTURED_GRID

POINTS 1089 float
-0.5 0.46875 0
-0.46875 0.46875 0
-0.5 0.5 0
-0.46875 0.5 0
-0.4375 0.46875 0
-0.4375 0.5 0
-0.5 0.4375 0
-0.46875 0.4375 0
-0.4375 0.4375 0
-0.40625 0.46875 0
-0.40625 0.5 0
-0.375 0.46875 0
-0.375 0.5 0
-0.40625 0.4375 0
-0.375 0.4375 0
-0.5 0.40625 0
-0.46875 0.40625 0
-0.4375 0.40625 0
-0.5 0.375 0
-0.46875 0.375 0
-0.4375 0.375 0
-0.40625 0.40625 0
-0.375 0.40625 0
-0.40625 0.375 0
-0.375 0.375 0
-0.34375 0.46875 0
-0.34375 0.5 0
-0.3125 0.46875 0
-0.3125 0.5 0
-0.34375 0.4375 0
-0.3125 0.4375 0
-0.28125 0.46875 0
-0.28125 0.5 0
-0.25 0.46875 0
-0.25 0.5 0
-0.28125 0.4375 0
-0.25 0.4375 0
-0.34375 0.40625 0
-0.3125 0.40625 0
-0.34375 0.375 0
-0.3125 0.375 0
-0.28125 0.40625 0
-0.25 0.40625 0
-0.28125 0.375 0
-0.25 0.375 0
-0.5 0.34375 0
-0.46875 0.34375 0
-0.4375 0.34375 0
-0.5 0.3125 0
-0.46875 0.3125 0
-0.4375 0.3125 0
-0.40625 0.34375 0
-0.375 0.34375 0
-0.40625 0.3125 0
-0.375 0.3125 0
-0.5 0.28125 0
-0.46875 0.28125 0
-0.4375 0.28125 0
-0.5 0.25 0
-0.46875 0.25 0
-0.4375 0.25 0
-0.40625 0.28125 0
-0.375 0.28125 0
-0.40625 0.25 0
-0.375 0.25 0
-0.34375 0.34375 0
-0.3125 0.34375 0
-0.34375 0.3125 0
-0.3125 0.3125 0
-0.28125 0.34375 0
-0.25 0.34375 0
-0.28125 0.3125 0
-0.25 0.3125 0
-0.34375 0.28125 0
-0.3125 0.28125 0
-0.34375 0.25 0
-0.3125 0.25 0
-0.28125 0.28125 0
-0.25 0.28125 0
-0.28125 0.25 0
-0.25 0.25 0
-0.21875 0.46875 0
-0.21875 0.5 0
-0.1875 0.46875 0
-0.1875 0.5 0
-0.21875 0.4375 0
-0.1875 0.4375 0
-0.15625 0.46875 0
-0.15625 0.5 0
-0.125 0.46875 0
-0.125 0.5 0
-0.15625 0.4375 0
-0.125 0.4375 0
-0.21875 0.40625 0
-0.1875 0.40625 0
-0.21875 0.375 0
-0.1875 0.375 0
-0.15625 0.40625 0
-0.125 0.40625 0
-0.15625 0.375 0
-0.125 0.375 0
-0.09375 0.46875 0
-0.09375 0.5 0
-0.0625 0.46875 0
-0.0625 0.5 0
-0.09375 0.4375 0
-0.0625 0.4375 0
-0.03125 0.46875 0
-0.03125 0.5 0
0 0.46875 0
0 0.5 0
-0.03125 0.4375 0
0 0.4375 0
-0.09375 0.40625 0
-0.0625 0.40625 0
-0.09375 0.375 0
-0.0625 0.375 0
-0.03125 0.40625 0
0 0.40625 0
-0.03125 0.375 0
0 0.375 0
-0.21875 0.34375 0
-0.1875 0.34375 0
-0.21875 0.3125 0
-0.1875 0.3125 0
-0.15625 0.34375 0
-0.125 0.34375 0
-0.15625 0.3125 0
-0.125 0.3125 0
-0.21875 0.28125 0
-0.1875 0.28125 0
-0.21875 0.25 0
-0.1875 0.25 0
-0.15625 0.28125 0
-0.125 0.28125 0
-0.15625 0.25 0
-0.125 0.25 0
-0.09375 0.34375 0
-0.0625 0.34375 0
-0.09375 0.3125 0
-0.0625 0.3125 0
-0.03125 0.34375 0
0 0.34375 0
-0.03125 0.3125 0
0 0.3125 0
-0.09375 0.28125 0
-0.0625 0.28125 0
-0.09375 0.25 0
-0.0625 0.25 0
-0.03125 0.28125 0
0 0.28125 0
-0.03125 0.25 0
0 0.25 0
-0.5 0.21875 0
-0.46875 0.21875 0
-0.4375 0.21875 0
-0.5 0.1875 0
-0.46875 0.1875 0
-0.4375 0.1875 0
-0.40625 0.21875 0
-0.375 0.21875 0
-0.40625 0.1875 0
-0.375 0.1875 0
-0.5 0.15625 0
-0.46875 0.15625 0
-0.4375 0.15625 0
-0.5 0.125 0
-0.46875 0.125 0
-0.4375 0.125 0
-0.40625 0.15625 0
-0.375 0.15625 0
-0.40625 0.125 0
-0.375 0.125 0
-0.34375 0.21875 0
-0.3125 0.21875 0
-0.34375 0.1875 0
-0.3125 0.1875 0
-0.28125 0.21875 0
-0.25 0.21875 0
-0.28125 0.1875 0
-0.25 0.1875 0
-0.34375 0.15625 0
-0.3125 0.15625 0
-0.34375 0.125 0
-0.3125 0.125 0
-0.28125 0.15625 0
-0.25 0.15625 0
-0.28125 0.125 0
-0.25 0.125 0
-0.5 0.09375 0
-0.46875 0.09375 0
-0.4375 0.09375 0
-0.5 0.0625 0
-0.46875 0.0625 0
-0.4375 0.0625 0
-0.40625 0.09375 0
-0.375 0.09375 0
-0.40625 0.0625 0
-0.375 0.0625 0
-0.5 0.03125 0
-0.46875 0.03125 0
-0.4375 0.03125 0
-0.5 0 0
-0.46875 0 0
-0.4375 0 0
-0.40625 0.03125 0
-0.375 0.03125 0
-0.40625 0 0
-0.375 0 0
-0.34375 0.09375 0
-0.3125 0.09375 0
-0.34375 0.0625 0
-0.3125 0.0625 0
-0.28125 0.09375 0
-0.25 0.09375 0
-0.28125 0.0625 0
-0.25 0.0625 0
-0.34375 0.03125 0
-0.3125 0.03125 0
-0.34375 0 0
-0.3125 0 0
-0.28125 0.03125 0
-0.25 0.03125 0
-0.28125 0 0
-0.25 0 0
-0.21875 0.21875 0
-0.1875 0.21875 0
-0.21875 0.1875 0
-0.1875 0.1875 0
-0.15625 0.21875 0
-0.125 0.21875 0
-0.15625 0.1875 0
-0.125 0.1875 0
-0.21875 0.15625 0
-0.1875 0.15625 0
-0.21875 0.125 0
-0.1875 0.125 0
-0.15625 0.15625 0
-0.125 0.15625 0
-0.15625 0.125 0
-0.125 0.125 0
-0.09375 0.21875 0
-0.0625 0.21875 0
-0.09375 0.1875 0
-0.0625 0.1875 0
-0.03125 0.21875 0
0 0.21875 0
-0.03125 0.1875 0
0 0.1875 0
-0.09375 0.15625 0
-0.0625 0.15625 0
-0.09375 0.125 0
-0.0625 0.125 0
-0.03125 0.15625 0
0 0.15625 0
-0.03125 0.125 0
0 0.125 0
-0.21875 0.09375 0
-0.1875 0.09375 0
-0.21875 0.0625 0
-0.1875 0.0625 0
-0.15625 0.09375 0
-0.125 0.09375 0
-0.15625 0.0625 0
-0.125 0.0625 0
-0.21875 0.03125 0
-0.1875 0.03125 0
-0.21875 0 0
-0.1875 0 0
-0.15625 0.03125 0
-0.125 0.03125 0
-0.15625 0 0
-0.125 0 0
-0.09375 0.09375 0
-0.0625 0.09375 0
-0.09375 0.0625 0
-0.0625 0.0625 0
-0.03125 0.09375 0
0 0.09375 0
-0.03125 0.0625 0
0 0.0625 0
-0.09375 0.03125 0
-0.0625 0.03125 0
-0.09375 0 0
-0.0625 0 0
-0.03125 0.03125 0
0 0.03125 0
-0.03125 0 0
0 0 0
0.03125 0.46875 0
0.03125 0.5 0
0.0625 0.46875 0
0.0625 0.5 0
0.03125 0.4375 0
0.0625 0.4375 0
0.09375 0.46875 0
0.09375 0.5 0
0.125 0.46875 0
0.125 0.5 0
0.09375 0.4375 0
0.125 0.4375 0
0.03125 0.40625 0
0.0625 0.40625 0
0.03125 0.375 0
0.0625 0.375 0
0.09375 0.40625 0
0.125 0.40625 0
0.09375 0.375 0
0.125 0.375 0
0.15625 0.46875 0
0.15625 0.5 0
0.1875 0.46875 0
0.1875 0.5 0
0.15625 0.4375 0
0.1875 0.4375 0
0.21875 0.46875 0
0.21875 0.5 0
0.25 0.46875 0
0.25 0.5 0
0.21875 0.4375 0
0.25 0.4375 0
0.15625 0.40625 0
0.1875 0.40625 0
0.15625 0.375 0
0.1875 0.375 0
0.21875 0.40625 0
0.25 0.40625 0
0.21875 0.375 0
0.25 0.375 0
0.03125 0.34375 0
0.0625 0.34375 0
0.03125 0.3125 0
0.0625 0.3125 0
0.09375 0.34375 0
0.125 0.34375 0
0.09375 0.3125 0
0.125 0.3125 0
0.03125 0.28125 0
0.0625 0.28125 0
0.03125 0.25 0
0.0625 0.25 0
0.09375 0.28125 0
0.125 0.28125 0
0.09375 0.25 0
0.125 0.25 0
0.15625 0.34375 0
0.1875 0.34375 0
0.15625 0.3125 0
0.1875 0.3125 0
0.21875 0.34375 0
0.25 0.34375 0
0.21875 0.3125 0
0.25 0.3125 0
0.15625 0.28125 0
0.1875 0.28125 0
0.15625 0.25 0
0.1875 0.25 0
0.21875 0.28125 0
0.25 0.28125 0
0.21875 0.25 0
0.25 0.25 0
0.28125 0.46875 0
0.28125 0.5 0
0.3125 0.46875 0
0.3125 0.5 0
0.28125 0.4375 0
0.3125 0.4375 0
0.34375 0.46875 0
0.34375 0.5 0
0.375 0.46875 0
0.375 0.5 0
0.34375 0.4375 0
0.375 0.4375 0
0.28125 0.40625 0
0.3125 0.40625 0
0.28125 0.375 0
0.3125 0.375 0
0.34375 0.40625 0
0.375 0.40625 0
0.34375 0.375 0
0.375 0.375 0
0.40625 0.46875 0
0.40625 0.5 0
0.4375 0.46875 0
0.4375 0.5 0
0.40625 0.4375 0
0.4375 0.4375 0
0.46875 0.46875 0
0.46875 0.5 0
0.5 0.46875 0
0.5 0.5 0
0.46875 0.4375 0
0.5 0.4375 0
0.40625 0.40625 0
0.4375 0.40625 0
0.40625 0.375 0
0.4375 0.375 0
0.46875 0.40625 0
0.5 0.40625 0
0.46875 0.375 0
0.5 0.375 0
0.28125 0.34375 0
0.3125 0.34375 0
0.28125 0.3125 0
0.3125 0.3125 0
0.34375 0.34375 0
0.375 0.34375 0
0.34375 0.3125 0
0.375 0.3125 0
0.28125 0.28125 0
0.3125 0.28125 0
0.28125 0.25 0
0.3125 0.25 0
0.34375 0.28125 0
0.375 0.28125 0
0.34375 0.25 0
0.375 0.25 0
0.40625 0.34375 0
0.4375 0.34375 0
0.40625 0.3125 0
0.4375 0.3125 0
0.46875 0.34375 0
0.5 0.34375 0
0.46875 0.3125 0
0.5 0.3125 0
0.40625 0.28125 0
0.4375 0.28125 0
0.40625 0.25 0
0.4375 0.25 0
0.46875 0.28125 0
0.5 0.28125 0
0.46875 0.25 0
0.5 0.25 0
0.03125 0.21875 0
0.0625 0.21875 0
0.03125 0.1875 0
0.0625 0.1875 0
0.09375 0.21875 0
0.125 0.21875 0
0.09375 0.1875 0
0.125 0.1875 0
0.03125 0.15625 0
0.0625 0.15625 0
0.03125 0.125 0
0.0625 0.125 0
0.09375 0.15625 0
0.125 0.15625 0
0.09375 0.125 0
0.125 0.125 0
0.15625 0.21875 0
0.1875 0.21875 0
0.15625 0.1875 0
0.1875 0.1875 0
0.21875 0.21875 0
0.25 0.21875 0
0.21875 0.1875 0
0.25 0.1875 0
0.15625 0.15625 0
0.1875 0.15625 0
0.15625 0.125 0
0.1875 0.125 0
0.21875 0.15625 0
0.25 0.15625 0
0.21875 0.125 0
0.25 0.125 0
0.03125 0.09375 0
0.0625 0.09375 0
0.03125 0.0625 0
0.0625 0.0625 0
0.09375 0.09375 0
0.125 0.09375 0
0.09375 0.0625 0
0.125 0.0625 0
0.03125 0.03125 0
0.0625 0.03125 0
0.03125 0 0
0.0625 0 0
0.09375 0.03125 0
0.125 0.03125 0
0.09375 0 0
0.125 0 0
0.15625 0.09375 0
0.1875 0.09375 0
0.15625 0.0625 0
0.1875 0.0625 0
0.21875 0.09375 0
0.25 0.09375 0
0.21875 0.0625 0
0.25 0.0625 0
0.15625 0.03125 0
0.1875 0.03125 0
0.15625 0 0
0.1875 0 0
0.21875 0.03125 0
0.25 0.03125 0
0.21875 0 0
0.25 0 0
0.28125 0.21875 0
0.3125 0.21875 0
0.28125 0.1875 0
0.3125 0.1875 0
0.34375 0.21875 0
0.375 0.21875 0
0.34375 0.1875 0
0.375 0.1875 0
0.28125 0.15625 0
0.3125 0.15625 0
0.28125 0.125 0
0.3125 0.125 0
0.34375 0.15625 0
0.375 0.15625 0
0.34375 0.125 0
0.375 0.125 0
0.40625 0.21875 0
0.4375 0.21875 0
0.40625 0.1875 0
0.4375 0.1875 0
0.46875 0.21875 0
0.5 0.21875 0
0.46875 0.1875 0
0.5 0.1875 0
0.40625 0.15625 0
0.4375 0.15625 0
0.40625 0.125 0
0.4375 0.125 0
0.46875 0.15625 0
0.5 0.15625 0
0.46875 0.125 0
0.5 0.125 0
0.28125 0.09375 0
0.3125 0.09375 0
0.28125 0.0625 0
0.3125 0.0625 0
0.34375 0.09375 0
0.375 0.09375 0
0.34375 0.0625 0
0.375 0.0625 0
0.28125 0.03125 0
0.3125 0.03125 0
0.28125 0 0
0.3125 0 0
0.34375 0.03125 0
0.375 0.03125 0
0.34375 0 0
0.375 0 0
0.40625 0.09375 0
0.4375 0.09375 0
0.40625 0.0625 0
0.4375 0.0625 0
0.46875 0.09375 0
0.5 0.09375 0
0.46875 0.0625 0
0.5 0.0625 0
0.40625 0.03125 0
0.4375 0.03125 0
0.40625 0 0
0.4375 0 0
0.46875 0.03125 0
0.5 0.03125 0
0.46875 0 0
0.5 0 0
-0.5 -0.03125 0
-0.46875 -0.03125 0
-0.4375 -0.03125 0
-0.5 -0.0625 0
-0.46875 -0.0625 0
-0.4375 -0.0625 0
-0.40625 -0.03125 0
-0.375 -0.03125 0
-0.40625 -0.0625 0
-0.375 -0.0625 0
-0.5 -0.09375 0
-0.46875 -0.09375 0
-0.4375 -0.09375 0
-0.5 -0.125 0
-0.46875 -0.125 0
-0.4375 -0.125 0
-0.40625 -0.09375 0
-0.375 -0.09375 0
-0.40625 -0.125 0
-0.375 -0.125 0
-0.34375 -0.03125 0
-0.3125 -0.03125 0
-0.34375 -0.0625 0
-0.3125 -0.0625 0
-0.28125 -0.03125 0
-0.25 -0.03125 0
-0.28125 -0.0625 0
-0.25 -0.0625 0
-0.34375 -0.09375 0
-0.3125 -0.09375 0
-0.34375 -0.125 0
-0.3125 -0.125 0
-0.28125 -0.09375 0
-0.25 -0.09375 0
-0.28125 -0.125 0
-0.25 -0.125 0
-0.5 -0.15625 0
-0.46875 -0.15625 0
-0.4375 -0.15625 0
-0.5 -0.1875 0
-0.46875 -0.1875 0
-0.4375 -0.1875 0
-0.40625 -0.15625 0
-0.375 -0.15625 0
[...]
POINT_DATA 1089
SCALARS T float
LOOKUP_TABLE default
0
0
0
0
0
0
0
0
0
0
0
0
0
0
0
0
0
0
0
0
0
0
0
0
0
0
0
0
0
0
0
0
0
0
0
0
0
0
0
0
0
0
0
0
0
0
0
0
0
0
0
0
0
0
0
0
0
0
0
0
0
0
0
0
0
0
0
0
0
0
0
0
0
0
0
0
0
0
0
0
0
0
0
0
0
0
0
0
0
0
0
0
0
0
0
0
0
0
0
0
0
0
0
0
0
0
0
0
0
0
0
0
0
0
0
0
0
0
0
0
0
0
0
0
0
0
0
0
0
0
0
0
0
0
0
0
0
0
0
0
0
0
0
0
0
0
0
0
0
0
0
0
0
0
0
0
0
0
0
0
0
0
0
0
0
0
0
0
0
0
0
0
0
0
0
0
0
0
0
0
0
0
0
0
0
0
0
0
0
0
0
0
0
0
0
0
0
0
0
0
0
0
0
0
0
0
0
0
0.0126564
0
6.23054e-06
0.0233628
0.217224
0.0451293
0.108763
0.488984
0.608763
0.177343
0.621198
0.406086
0.893429
0.943855
1
1
1
0
0
0
0
0
0
0
0
0
0
0
0
0
0
0
0
0
0
0
0
0
0
0
0.0232232
0
0
0
0
0
0.173163
0
0.318796
0.0789292
0.0152894
0.564944
0.328342
0
0
0.0770386
0
0.986014
0.80331
1
0.990257
0.345925
0.0286293
0.650083
0.159827
0
0
0
0
0
0.229011
0
0.0601545
0
0
0
0
0
0
0
0
0
0
0
0
0
0
0
0
0
0
0
0
0
0
0
0
0
0
0
0
0
0
0
0
0
0
0
0
0
0
0
0
0
0
0
0
0
0
0
0
0
0
0
0
0
0
0
0
0
0
0
0
0
0
0
0
0
0
0
0
0
0
0
0
0
0
0
0
0
0
0
0
0
0
0
0
0
0
0
0
0
0
0
0
0
0
0
0
0
0
0
0
0
0
0
0
0
0
0
0
0
0
0
0
0
0
0
0
0
0
0
0
0
0
0
0
0
0
0
0
0
0
0
0
0
0
0
0
0
0
0
0
0
0
0
0
0
0
0
0
0
0
0
0
0.00497799
0.0887186
0.231723
0.542241
0.17869
0.148846
0.67869
0.648846
0.626685
0.953522
0.818796
1
1
1
1
1
0.0663362
0.0124402
0.543679
0.283295
0
0
0.0435119
0
0.977343
0.673398
1
0.799844
0.196055
0
0.299844
0
0.724277
0.995267
0.331783
0.626578
1
1
0.71706
0.701079
0.0263622
0.131312
0
0
0.21706
0.201079
0
0
0.976566
0.660293
0.576808
0.274266
0.183727
0
0.0364264
0
0.100242
0.0112731
0
0
0
0
0
0
0
0
0
0
0
0
0
0
0
0
0
0
0
0
0
0
0
0
0
0
0
0
0
0
0
0
0
0
0
0
0
0
0
0
0
0
0
0
0
0
0
0
0
0
0
0
0
0
0
0
0
0
0
0
0
0
0
0
0
0
0
0
0
0
0
0
0
0
0
0
0
0.104955
0
0.288117
0
0
0
0
0
0
0.0255852
0.471366
0.081958
0.581921
0.594404
0.989449
0.788117
1
1
1
1
1
0.945781
1
0.999963
1
1
1
1
1
0
0
0
0
0
0
0.100029
0.600029
0.0470724
0.526737
0
0
0
0
0
0
0.00341629
0.364013
0
0.163959
1
1
0.979665
1
1
1
1
1
0.860596
1
0.662877
0.998919
1
1
1
1
1
1
1
1
0.855664
0.360927
0.974466
0.568163
1
1
1
1
1
0.762455
1
0.881314
0.00526317
0
0.0936968
0
0
0
0
0
0.262455
0
0.381314
0
0
0
0
0
1
1
1
1
1
0.901906
1
0.822705
1
1
1
1
0.995103
0.650355
0.918304
0.445464
0.401906
0
0.322705
0
0
0
0
0
0.155252
0
0.0271598
0
0
0
0
0
0
0
0
0
0
0
0
0.0330326
0
5.08143e-06
0
0
0
0
0
0
0
0
0
0
0.475847
0.942814
0.256829
0.74884
1
1
0.992016
1
0.0629281
0.341291
0
0.0363468
0.666881
0.799902
0.174865
0.299902
0
0
0
0
0
0
0
0
0
0
0
0
0
0
0
0
0
0
0
0
0
0
0
0
0
0
0
0
0
0
0
0
0
0
0
0
1
1
1
0.920488
0.74555
0.24555
0.493224
0.0727361
0.763376
0.527909
0.263376
0.107421
0.176303
0.000386716
0.00542861
0
0
0
0
0
0
0
0
0
0
0
0
0
0
0
0
0
0
0
0
0
0
0
0
0
0
0
0
0
0
0
0
0
0
0
0
0
0
0
0
0
0
0
0
0
0
0
0
0
0
0
0
0
0
0
0
0
0
0
0
0
0
0
0
0.00531793
0
0
0
0
0
0
0
0
0
0
0.00531793
0
0
0
0
0
0
0.0899699
0.0543892
0.394096
0.286984
0.400281
0.78672
0.894964
0.142886
0.642622
0.104985
0.563513
0.999737
1
0.958528
0.950704
0.214454
0.0111864
0.519858
0.0719085
0
0
0
0
0.642449
0.142449
0.548115
0.0974108
0
0
0
0
0
0
0
0
0
0
0
0
0
0
0
0
0
0
0
0
0
0
0
0
0
0
0
0
0
0
0
0
0
0
0
0
0
0
0
0
0
0
0
0
0
0
0
0
0
0
0
0
0
0
0
0
0
0
0
0
0
0
0
0
0
0
0
0
0.0164887
0.228565
0
0.00354853
0.49649
0.490276
0.037962
0.039572
0
0
0
0
0
0
0
0
0.221547
0.0156843
0.00515854
0
0
0
0
0
0
0
0
0
0
0
0
0
0
0
0
0
0
0
0
0
0
0
0
0
0
0
0
0
0
0
0
0
0
0
0
0
0
0
0
0
0
0
0
0
0
0
0
0
0
0
0
0
0
0
0
0
0
0
0
0
0
0
0
0
0
0
0
0
0
0
0
0
0
0
0
0
0
0
0
0
0
0
0
0
0
0
0
0
0
0
0
0
0
0
0
0
0
0
0
0
0
0
0
0
0
0
0
0

SCALARS P float
LOOKUP_TABLE default
-0.012001
-0.0124619
-0.0117025
-0.012185
-0.0130143
-0.0127966
-0.0122162
-0.0126517
-0.0131527
-0.0136526
-0.0135408
-0.0143605
-0.0144149
-0.0137084
-0.0142972
-0.0123651
-0.0127781
-0.0132403
-0.0124592
-0.0128558
-0.0132942
-0.0137384
-0.0142492
-0.01376
-0.0142293
-0.0150973
-0.0153837
-0.0157812
-0.0163403
-0.0148803
-0.0153961
-0.016293
-0.0170764
-0.0165335
-0.0174242
-0.0157698
-0.0159392
-0.014737
-0.0151535
-0.0146687
-0.0150363
-0.0154462
-0.0155719
-0.015289
-0.015392
-0.0125038
-0.0128917
-0.0133224
-0.0124974
-0.0128847
-0.0133247
-0.013781
-0.0142434
-0.0138022
-0.0142921
-0.0124311
-0.0128265
-0.0132933
-0.0122896
-0.0127007
-0.0132113
-0.013817
-0.014372
-0.0138096
-0.0144728
-0.0146755
-0.0150361
-0.014758
-0.015153
-0.0152825
-0.015381
-0.0154258
-0.0155377
-0.0149174
-0.0153945
-0.0151543
-0.0157782
-0.0157314
-0.0158779
-0.0162288
-0.0164344
-0.0164741
-0.0173655
-0.016108
-0.016868
-0.0158792
-0.0155884
-0.0154982
-0.0160376
-0.0147436
-0.0150503
-0.015104
-0.0144839
-0.0155096
-0.0152571
-0.0153263
-0.0150879
-0.0148374
-0.0142863
-0.014693
-0.0141653
-0.013954
-0.0140827
-0.0132021
-0.0132328
-0.0137987
-0.0131023
-0.0125076
-0.0124979
-0.0119092
-0.011907
-0.0124185
-0.0117987
-0.013651
-0.0129778
-0.013541
-0.0128621
-0.0122779
-0.01162
-0.0121119
-0.011382
-0.0153124
-0.0150721
-0.0154686
-0.015212
-0.0146742
-0.0141426
-0.0147867
-0.0142238
-0.0158128
-0.0155284
-0.0163784
-0.0160467
-0.0150548
-0.014441
-0.0154906
-0.0148031
-0.0135056
-0.0128111
-0.0135444
-0.0128165
-0.0120114
-0.0112097
-0.0119526
-0.0110559
-0.0137094
-0.0129553
-0.0140362
-0.0133506
-0.012032
-0.0110341
-0.0126299
-0.0122114
-0.0120511
-0.0124824
-0.0130504
-0.0116859
-0.0121345
-0.0127673
-0.0137526
-0.0145748
-0.0135996
-0.0146406
-0.0111669
-0.0116171
-0.0123051
-0.0104661
-0.0108802
-0.0115813
-0.0132759
-0.0145952
-0.0126568
-0.0142841
-0.0154682
-0.0163354
-0.01585
-0.0171195
-0.0169708
-0.0172629
-0.0180492
-0.0184521
-0.0162652
-0.0182239
-0.0165993
-0.019814
-0.0196262
-0.0201461
-0.0219924
-0.0225154
-0.00956553
-0.00987515
-0.0105042
-0.00846726
-0.00854823
-0.0088828
-0.0115991
-0.0135271
-0.0095972
-0.0110691
-0.00725884
-0.00703655
-0.00696187
-0.00603113
-0.00543183
-0.00471974
-0.00730018
-0.00805775
-0.00444805
-0.00349206
-0.0168111
-0.022227
-0.0132646
-0.00191271
-0.0206409
-0.0142726
0.0199211
0.0308968
0.000212978
0.0315824
0.0130173
0.0401624
0.0581934
0.0623416
0.0525223
0.0535112
-0.0172231
-0.0168068
-0.0184438
-0.017884
-0.016099
-0.0152685
-0.0169134
-0.0158467
-0.0202349
-0.0194383
-0.0227971
-0.0215613
-0.0179893
-0.016601
-0.019234
-0.0172921
-0.0144189
-0.013769
-0.014861
-0.0141944
-0.0133062
-0.0137779
-0.0139326
-0.0124508
-0.015661
-0.0156209
-0.0162359
-0.0166786
-0.0166931
0.004778
-0.0187402
0.0233804
-0.0180266
-0.0226995
0.0270496
0.00641964
-0.0204346
-0.017155
-0.0134256
-0.0159267
0.0622732
0.0458512
0.0536048
0.0502831
0.00884901
-0.0114302
0.0249185
-0.00148255
-0.0153561
-0.0153446
-0.0132169
-0.0126291
-0.0169452
0.0107322
-0.0134244
-0.00936718
-0.0101428
-0.00903741
-0.0050627
-0.00442468
-0.00900306
-0.0106546
-0.0044285
-0.0050163
-0.011392
-0.011434
-0.010989
-0.0110816
-0.0112223
-0.0107569
-0.0106856
-0.0108206
-0.010493
-0.0106424
-0.0104145
-0.0102226
-0.0109688
-0.0104088
-0.0106156
-0.00987503
-0.0100224
-0.00981849
-0.00943285
-0.00921637
-0.0103679
-0.0105105
-0.01034
-0.0104332
-0.0101158
-0.0101732
-0.0103872
-0.0104101
-0.0104333
-0.0104022
-0.0103185
-0.010425
-0.00971674
-0.00992653
-0.00915092
-0.00965353
-0.0102129
-0.0103911
-0.0101245
-0.0103768
-0.0103282
-0.0092574
-0.0100863
-0.00853529
-0.00871454
-0.00832352
-0.00788039
-0.00717192
-0.00996646
-0.0076362
-0.012108
-0.0101368
-0.00708199
-0.00530792
-0.00988337
-0.00658407
-0.00824911
-0.00932587
-0.0073401
-0.00942891
-0.0100445
-0.0103973
-0.0102646
-0.0106627
-0.0054707
-0.00956411
-0.00775549
-0.0136812
-0.0106073
-0.0111127
-0.0129542
-0.0124451
-0.0105252
-0.0104313
-0.0106221
-0.01048
-0.0105903
-0.0107313
-0.0107436
-0.0105572
-0.010894
-0.0106694
-0.0108929
-0.0110729
-0.0106449
-0.0108221
-0.0107222
-0.0109147
-0.0110177
-0.0112166
-0.0111321
-0.0113339
-0.0110825
-0.0108256
-0.011322
-0.0110392
-0.0112839
-0.0115386
-0.0116241
-0.0113252
-0.012001
-0.0117007
-0.0118466
-0.0122162
-0.0114394
-0.0116995
-0.011556
-0.0118118
-0.0120059
-0.0123651
-0.0121109
-0.0124592
-0.0108395
-0.0110245
-0.0111009
-0.0112098
-0.0112477
-0.0114323
-0.0113909
-0.011522
-0.0114816
-0.0114571
-0.0122165
-0.0118553
-0.0115452
-0.0115901
-0.0117203
-0.0116284
-0.0116389
-0.0118797
-0.0116905
-0.0119022
-0.012166
-0.0125038
-0.0121692
-0.0124974
-0.0116992
-0.0118692
-0.0116502
-0.0117654
-0.0121114
-0.0124311
-0.0119776
-0.0122896
-0.014666
-0.00740161
0.00663049
0.0362746
0.00480936
0.00514574
0.0595362
0.0579768
0.0567941
0.0932877
0.0889039
0.113944
0.111198
0.111366
0.126331
0.126528
-0.0120217
-0.0223308
0.03482
0.00365775
-0.0176898
-0.0145639
-0.017611
-0.0162939
0.0977384
0.0581851
0.113936
0.0816828
0.001499
-0.0164707
0.0185128
-0.0146807
0.0711966
0.105447
0.0188885
0.0543628
0.114578
0.114048
0.0731664
0.0708547
-0.0102915
0.00337784
-0.0049887
-0.00262884
0.0219821
0.0206274
0.00238561
0.00296171
0.100014
0.0580881
0.0462858
0.010291
0.00506364
-0.0123919
-0.0106046
-0.0105561
0.00075502
-0.0111434
-0.00202262
-0.00496773
-0.00989341
-0.00855814
-0.00575245
-0.00643507
-0.0130684
-0.012242
-0.0136179
-0.0123267
-0.0118223
-0.0115793
-0.0117107
-0.0113613
-0.0135356
-0.0120193
-0.0125373
-0.0112851
-0.0113519
-0.0109632
-0.0107308
-0.010382
-0.0115083
-0.0115657
-0.0112252
-0.0112383
-0.0117461
-0.0120511
-0.0113902
-0.0116859
-0.0107936
-0.0107734
-0.0102112
-0.0101639
-0.0108927
-0.0111669
-0.0102386
-0.0104661
-0.0110016
-0.0102079
-0.00961467
-0.00917643
-0.00987717
-0.00963577
-0.00901364
-0.00885076
-0.00834231
-0.00823216
-0.00700992
-0.0072765
-0.00819852
-0.00808383
-0.00741562
-0.0073673
-0.00949148
-0.00941836
-0.00871176
-0.00858702
-0.0094277
-0.00956553
-0.00849008
-0.00846726
-0.00793013
-0.00773088
-0.00720134
-0.00691879
-0.00749587
-0.00725884
-0.00652912
-0.00603113
-0.00495022
-0.00398234
-0.00245083
-0.00439545
-0.00345589
-0.00198145
-0.00121155
0.00147032
-0.0012689
0.00437258
-0.00446188
-0.00400989
-0.00376271
-0.00471656
-0.00459728
-0.00517265
-0.00405327
0.0106642
-0.0036016
0.0180291
0.0148357
0.0330252
0.0181245
0.0313845
0.0426232
0.0455689
0.0392165
0.0421221
0.0302733
0.037295
0.0390371
0.0415822
0.0412535
0.0429241
0.0435643
0.0446228
-0.00483446
-0.00474422
-0.00538031
-0.00473498
-0.00440896
-0.00449504
-0.0025582
0.0194735
-0.00384559
0.0135855
-0.00463824
-0.00382348
-0.0026515
-0.00504751
-0.00409283
-0.00255537
-0.00253688
0.00586164
-0.00170248
0.00150094
0.039637
0.0421093
0.0338344
0.0392688
0.043951
0.0450085
0.0422543
0.0435674
0.0215324
0.0327271
0.0148846
0.0315942
0.0394321
0.0418662
0.040687
0.0434984
0.0449632
0.0399166
0.0413046
0.0363467
0.0241423
0.00647746
0.0254393
0.0113527
0.0423713
0.0395071
0.0443324
0.0430825
0.0338844
0.0219823
0.0406982
0.0329923
0.0006155
-0.00020701
0.0031803
0.00106401
-0.00106475
-0.00124021
0.000242411
0.000372785
0.00596669
-0.00126477
0.0108268
-0.0039246
-0.000288411
0.000858894
-0.0014762
0.000683575
0.044814
0.0439499
0.0430947
0.0409331
0.0420896
0.0355627
0.0367816
0.0268072
0.0409753
0.0363909
0.0424147
0.0366893
0.0269057
0.0136827
0.0228451
0.00706838
0.0119614
-0.00504187
0.00777169
-0.00314946
-0.00238743
-0.000282121
-0.00195898
-0.00138626
0.00366415
-1.03761e-05
0.00087376
-0.000369703
-0.00131482
-0.00245873
-0.00241338
-0.00411591
-0.0059746
-0.00530924
-0.00449787
-0.00706008
-0.00672223
-0.00650239
-0.00429118
-0.00327665
-0.00670664
-0.00735351
-0.00816188
-0.00813844
-0.00834228
-0.00919759
-0.00945023
-0.0100092
-0.00889099
-0.010122
-0.0110111
-0.0128015
0.0145729
0.0391658
0.00597925
0.0383394
0.0484011
0.049907
0.0574771
0.0582318
-0.00893974
0.00937236
-0.0160718
-0.0172884
0.0355909
0.0478121
-0.00711928
0.00412707
-0.0100637
-0.0104656
-0.0111459
-0.010758
-0.0112315
-0.0119336
-0.0121926
-0.0138011
-0.0129151
-0.0142641
-0.0112962
-0.0117891
-0.0124571
-0.0117007
-0.012185
-0.0127966
-0.0133225
-0.0144131
-0.0135408
-0.0144149
-0.0162347
-0.0197142
-0.0160483
-0.0182034
-0.0224446
-0.0233837
-0.0199059
-0.0206122
-0.0157197
-0.0171216
-0.0153837
-0.0163403
-0.0182235
-0.0187286
-0.0170764
-0.0174242
0.0493792
0.0455164
0.0587238
0.051576
0.0257637
0.00237905
0.0191469
-0.00735985
0.0448334
0.0242811
0.000601085
-0.0127299
-0.00418871
-0.0143266
-0.0190792
-0.0154075
-0.00386432
-0.00371887
-0.00822555
-0.00717175
-0.00459521
-0.00578651
-0.0069561
-0.00747639
-0.0107165
-0.00948484
-0.0125512
-0.0111744
-0.00886114
-0.00895474
-0.0103046
-0.0100489
-0.0234834
-0.0217145
-0.0206106
-0.0195143
-0.0186789
-0.0157763
-0.0176237
-0.0156363
-0.0186764
-0.0179507
-0.0173655
-0.016868
-0.0167379
-0.0153707
-0.0160376
-0.0150503
-0.0136043
-0.0122807
-0.0140029
-0.0128515
-0.0113538
-0.0108937
-0.0119813
-0.011434
-0.0141304
-0.0131418
-0.0140827
-0.0132328
-0.0123424
-0.0117616
-0.0124979
-0.011907
-0.000351225
0.00219778
0.00142704
0.00374939
0.00494552
0.0051534
0.00578046
0.00557387
0.00246081
0.00502247
0.00306064
0.00667868
0.00751711
0.00729835
0.0118798
0.0108167
0.00175921
-0.0018555
0.00216249
-0.00155937
-0.00375798
-0.00523331
-0.00345946
-0.00494519
0.00252383
-0.00208562
0.00141269
-0.00461538
-0.00386206
-0.00524122
-0.00569725
-0.00641179
0.00187166
0.0205522
0.00955573
0.0700055
0.053335
0.0687684
0.131251
0.147616
0.0239753
0.112641
0.0148662
0.0980933
0.172209
0.171501
0.168174
0.165377
0.0278561
-0.0117965
0.0776066
-0.00407024
-0.00941759
-0.00803922
-0.00985713
-0.00845742
0.104801
0.0143012
0.0902529
0.00791691
-0.00813369
-0.00820504
-0.00867909
-0.00854134
-0.00615268
-0.00661539
-0.00585598
-0.00632095
-0.00683632
-0.0068101
-0.00652019
-0.00646811
-0.00600161
-0.00635133
-0.00665596
-0.00669009
-0.00645522
-0.00634114
-0.00661005
-0.00639952
-0.00661297
-0.00624398
-0.00623259
-0.00580978
-0.0057117
-0.00495022
-0.00522629
-0.00439545
-0.00606721
-0.00563518
-0.00608216
-0.00565457
-0.00510465
-0.00446188
-0.00518873
-0.00471656
-0.00743637
-0.00710984
-0.00787735
-0.00747931
-0.00685825
-0.00656016
-0.00715006
-0.00679161
-0.00809456
-0.00780597
-0.00835514
-0.00810259
-0.00747236
-0.00709111
-0.0077983
-0.00744199
-0.00619589
-0.0057494
-0.00637599
-0.00587463
-0.0052872
-0.00483446
-0.0053315
-0.00473498
-0.00664653
-0.0061023
-0.00702002
-0.00650377
-0.00546307
-0.00463824
-0.00587693
-0.00504751
-0.00348604
0.0350911
-0.00819693
-0.0085811
0.0837247
0.0811058
-0.003055
-0.00382856
-0.00929943
-0.00991365
-0.0100652
-0.0103094
-0.0106575
-0.011166
-0.0106469
-0.0108617
0.0304135
-0.00718555
-0.0103584
-0.0103491
-0.00944337
-0.009057
-0.00983179
-0.00943291
-0.0109311
-0.0103783
-0.0107227
-0.0104134
-0.0100099
-0.00969261
-0.010151
-0.00991027
-0.0106854
-0.010662
-0.0110928
-0.0109081
-0.0107204
-0.0107494
-0.0108099
-0.0107319
-0.0113406
-0.0110537
-0.011434
-0.0110816
-0.010855
-0.010711
-0.0108206
-0.0106424
-0.0106325
-0.010434
-0.010609
-0.0104629
-0.0102503
-0.0100812
-0.010335
-0.0102236
-0.01058
-0.0104681
-0.0105105
-0.0104332
-0.0103904
-0.0103315
-0.0104101
-0.0104022
-0.00875449
-0.00847449
-0.00912104
-0.00885005
-0.00818171
-0.00786186
-0.00858824
-0.00832244
-0.00942944
-0.00920192
-0.00970421
-0.00952994
-0.00899237
-0.00879494
-0.00938012
-0.00925517
-0.0074978
-0.00707297
-0.00803934
-0.00773382
-0.00657286
-0.0059746
-0.00740051
-0.00706008
-0.00860437
-0.00842532
-0.00915702
-0.00909759
-0.00826424
-0.00816188
-0.00909425
-0.00919759
-0.0099381
-0.00982354
-0.0101385
-0.0100813
-0.00973683
-0.0096828
-0.0100543
-0.0100643
-0.010303
-0.0103004
-0.0104313
-0.01048
-0.0103282
-0.0103937
-0.0105572
-0.0106694
-0.00966838
-0.00970872
-0.0101203
-0.010238
-0.00982537
-0.0100637
-0.0104386
-0.010758
-0.0105063
-0.0106807
-0.0108256
-0.0110392
-0.0109352
-0.0112962
-0.0113252
-0.0117025

SCALARS U float
LOOKUP_TABLE default
0.0250477
0.0262225
0.025627
0.0270338
0.0271763
0.0283459
0.0246865
0.0256407
0.0263495
0.0277906
0.0293153
0.0279284
0.029717
0.0267337
0.0267125
0.0245106
0.0253079
0.0258454
0.0245543
0.0252367
0.0256497
0.0260715
0.0259391
0.0257577
0.0255307
0.0274479
0.0292691
0.0263194
0.0278654
0.0262189
0.025259
0.0246743
0.0256975
0.0227423
0.0231482
0.0239339
0.0224063
0.0254204
0.0245402
0.024959
0.0240768
0.0233864
0.0220939
0.0229683
0.0217614
0.0248432
0.0254374
0.0257563
0.0253954
0.0259182
0.0261677
0.0257693
0.0254487
0.0261049
0.0256889
0.0262111
0.0266799
0.0268912
0.0272648
0.027709
0.027936
0.0267826
0.0262806
0.0278419
0.0272932
0.0247872
0.0238217
0.0248988
0.0237652
0.0226372
0.0213687
0.0223764
0.0208864
0.0253287
0.0239371
0.0261642
0.0244194
0.0221997
0.0203038
0.0221604
0.0196395
0.0207512
0.0205156
0.0188862
0.0179722
0.0208588
0.0194625
0.0173531
0.0157936
0.0164081
0.0144272
0.0183837
0.0177913
0.0208217
0.0197323
0.0206103
0.0196828
0.0189767
0.0186947
0.0191375
0.0191259
0.0161638
0.014105
0.0164607
0.0145246
0.0177444
0.0181446
0.0170317
0.015287
0.0175874
0.0160823
0.0187811
0.0193333
0.0189349
0.0196286
0.0197223
0.0208944
0.0206024
0.0214537
0.022534
0.0241008
0.0201805
0.0192601
0.0194795
0.0183769
0.0187982
0.0189912
0.017819
0.0180744
0.0184625
0.0169372
0.0170997
0.014832
0.0160295
0.0161009
0.013192
0.0126017
0.0199942
0.0218602
0.0194512
0.0221508
0.0246238
0.0276349
0.0265243
0.0320974
0.0176887
0.0212479
0.0138685
0.0177594
0.0278297
0.0379903
0.0265183
0.0420505
0.0284864
0.0289676
0.02931
0.0297482
0.0303835
0.0310089
0.0293457
0.0288446
0.0313784
0.0311233
0.0308523
0.0318346
0.0330016
0.0315415
0.0331275
0.0351989
0.0340462
0.0344025
0.0374527
0.0390604
0.0275614
0.0253612
0.0297915
0.0270248
0.0223658
0.0189687
0.0229893
0.01842
0.0332709
0.0297946
0.0386887
0.0343316
0.0242371
0.0181809
0.0263147
0.0183178
0.03153
0.0339921
0.0374177
0.0304662
0.0339448
0.0391185
0.0417013
0.0456937
0.0465432
0.0547425
0.0279793
0.0324182
0.0399235
0.0233044
0.0275332
0.03597
0.0529927
0.0713837
0.0520209
0.0738111
0.0469377
0.0415301
0.0558007
0.0462369
0.029804
0.0187829
0.0324573
0.0186956
0.0755806
0.0564311
0.078508
0.0559778
0.035732
0.0200555
0.0337751
0.0216417
0.0154313
0.0120456
0.0135769
0.00868612
0.00917472
0.0071677
0.00405154
-0.000230997
0.011778
0.00504303
0.0102641
0.00154454
-0.00167612
-0.00838802
-0.00717842
-0.0155487
0.00694168
0.00897368
-0.00353391
-0.00689109
0.0158245
0.0267707
-0.0102804
-0.0188085
-0.0147612
-0.0239123
-0.0225925
-0.0333259
-0.0378322
-0.058654
-0.0509564
-0.0733602
0.00848562
-0.00298609
0.00471121
-0.0108323
-0.0140905
-0.0224785
-0.0269719
-0.0335936
0.0043326
-0.0152498
0.0105645
-0.00423798
-0.0394384
-0.0460933
-0.0273526
-0.0369379
-0.0258412
-0.0313007
-0.0269556
-0.0198642
-0.0440723
-0.0645534
-0.017287
-0.0208026
-0.0277778
-0.00700497
-0.0191715
0.00457901
0.0102778
0.0277593
0.0252832
0.0473519
0.0178814
0.0166382
0.0176582
0.0167745
0.0195429
0.0189866
0.016887
0.0164634
0.0157385
0.0158351
0.0175822
0.0155502
0.021853
0.0210357
0.0251282
0.0242691
0.0187191
0.0151323
0.0207262
0.0144246
0.0146561
0.0151992
0.0142093
0.0149099
0.0136676
0.0130027
0.0143284
0.0150123
0.0148776
0.0154609
0.013201
0.0139395
0.0118568
0.0110003
0.00864133
0.00771668
0.0114722
0.0125712
0.00891263
0.0106936
0.0301671
0.0299402
0.0377317
0.0400815
0.0245701
0.012849
0.0331942
0.0120955
0.0497226
0.059673
0.0617404
0.0827811
0.0511927
0.0103133
0.0659873
-0.00892218
0.002502
0.00229484
-0.00750802
-0.00689131
0.0053299
0.00832762
0.00020151
0.00552349
-0.0257232
-0.0218507
-0.0568398
-0.0414622
-0.00643784
0.00316287
-0.0158307
0.00188574
0.0158129
0.0162263
0.0169576
0.0172152
0.0151661
0.0165505
0.0182422
0.018373
0.0196008
0.0196581
0.0180293
0.0195065
0.0142931
0.0160361
0.0132433
0.015502
0.0177996
0.0194471
0.0176566
0.0195176
0.0209895
0.0210398
0.0223818
0.0224998
0.0209367
0.0222954
0.0237477
0.0240156
0.0250477
0.0254696
0.0235559
0.0246865
0.0209541
0.0223096
0.0211235
0.0224913
0.0235009
0.0245106
0.0236342
0.0245543
0.0121694
0.0151102
0.0113029
0.0151203
0.0177471
0.0198327
0.0182823
0.0205431
0.0114516
0.016124
0.0131923
0.0186684
0.0196076
0.0218404
0.0220083
0.023864
0.0215307
0.0229018
0.0222742
0.0236008
0.0239976
0.0248432
0.0246254
0.0253954
0.0234468
0.0246268
0.0250921
0.0259743
0.0255283
0.0262111
0.0266816
0.0272648
0.0426812
0.0596421
-0.0276681
-0.0276907
0.0473507
-0.00814946
-0.00522604
0.02626