# vtk DataFile Version 2.0
Gerris simulation version 1.3.2 (131206-155120)
ASCII
DATASET UNSTRUCTURED_GRID

POINTS 1089 float
-0.5 0.46875 0
-0.46875 0.46875 0
-0.5 0.5 0
-0.46875 0.5 0
-0.4375 0.46875 0
-0.4375 0.5 0
-0.5 0.4375 0
-0.46875 0.4375 0
-0.4375 0.4375 0
-0.40625 0.46875 0
-0.40625 0.5 0
-0.375 0.46875 0
-0.375 0.5 0
-0.40625 0.4375 0
-0.375 0.4375 0
-0.5 0.40625 0
-0.46875 0.40625 0
-0.4375 0.40625 0
-0.5 0.375 0
-0.46875 0.375 0
-0.4375 0.375 0
-0.40625 0.40625 0
-0.375 0.40625 0
-0.40625 0.375 0
-0.375 0.375 0
-0.34375 0.46875 0
-0.34375 0.5 0
-0.3125 0.46875 0
-0.3125 0.5 0
-0.34375 0.4375 0
-0.3125 0.4375 0
-0.28125 0.46875 0
-0.28125 0.5 0
-0.25 0.46875 0
-0.25 0.5 0
-0.28125 0.4375 0
-0.25 0.4375 0
-0.34375 0.40625 0
-0.3125 0.40625 0
-0.34375 0.375 0
-0.3125 0.375 0
-0.28125 0.40625 0
-0.25 0.40625 0
-0.28125 0.375 0
-0.25 0.375 0
-0.5 0.34375 0
-0.46875 0.34375 0
-0.4375 0.34375 0
-0.5 0.3125 0
-0.46875 0.3125 0
-0.4375 0.3125 0
-0.40625 0.34375 0
-0.375 0.34375 0
-0.40625 0.3125 0
-0.375 0.3125 0
-0.5 0.28125 0
-0.46875 0.28125 0
-0.4375 0.28125 0
-0.5 0.25 0
-0.46875 0.25 0
-0.4375 0.25 0
-0.40625 0.28125 0
-0.375 0.28125 0
-0.40625 0.25 0
-0.375 0.25 0
-0.34375 0.34375 0
-0.3125 0.34375 0
-0.34375 0.3125 0
-0.3125 0.3125 0
-0.28125 0.34375 0
-0.25 0.34375 0
-0.28125 0.3125 0
-0.25 0.3125 0
-0.34375 0.28125 0
-0.3125 0.28125 0
-0.34375 0.25 0
-0.3125 0.25 0
-0.28125 0.28125 0
-0.25 0.28125 0
-0.28125 0.25 0
-0.25 0.25 0
-0.21875 0.46875 0
-0.21875 0.5 0
-0.1875 0.46875 0
-0.1875 0.5 0
-0.21875 0.4375 0
-0.1875 0.4375 0
-0.15625 0.46875 0
-0.15625 0.5 0
-0.125 0.46875 0
-0.125 0.5 0
-0.15625 0.4375 0
-0.125 0.4375 0
-0.21875 0.40625 0
-0.1875 0.40625 0
-0.21875 0.375 0
-0.1875 0.375 0
-0.15625 0.40625 0
-0.125 0.40625 0
-0.15625 0.375 0
-0.125 0.375 0
-0.09375 0.46875 0
-0.09375 0.5 0
-0.0625 0.46875 0
-0.0625 0.5 0
-0.09375 0.4375 0
-0.0625 0.4375 0
-0.03125 0.46875 0
-0.03125 0.5 0
0 0.46875 0
0 0.5 0
-0.03125 0.4375 0
0 0.4375 0
-0.09375 0.40625 0
-0.0625 0.40625 0
-0.09375 0.375 0
-0.0625 0.375 0
-0.03125 0.40625 0
0 0.40625 0
-0.03125 0.375 0
0 0.375 0
-0.21875 0.34375 0
-0.1875 0.34375 0
-0.21875 0.3125 0
-0.1875 0.3125 0
-0.15625 0.34375 0
-0.125 0.34375 0
-0.15625 0.3125 0
-0.125 0.3125 0
-0.21875 0.28125 0
-0.1875 0.28125 0
-0.21875 0.25 0
-0.1875 0.25 0
-0.15625 0.28125 0
-0.125 0.28125 0
-0.15625 0.25 0
-0.125 0.25 0
-0.09375 0.34375 0
-0.0625 0.34375 0
-0.09375 0.3125 0
-0.0625 0.3125 0
-0.03125 0.34375 0
0 0.34375 0
-0.03125 0.3125 0
0 0.3125 0
-0.09375 0.28125 0
-0.0625 0.28125 0
-0.09375 0.25 0
-0.0625 0.25 0
-0.03125 0.28125 0
0 0.28125 0
-0.03125 0.25 0
0 0.25 0
-0.5 0.21875 0
-0.46875 0.21875 0
-0.4375 0.21875 0
-0.5 0.1875 0
-0.46875 0.1875 0
-0.4375 0.1875 0
-0.40625 0.21875 0
-0.375 0.21875 0
-0.40625 0.1875 0
-0.375 0.1875 0
-0.5 0.15625 0
-0.46875 0.15625 0
-0.4375 0.15625 0
-0.5 0.125 0
-0.46875 0.125 0
-0.4375 0.125 0
-0.40625 0.15625 0
-0.375 0.15625 0
-0.40625 0.125 0
-0.375 0.125 0
-0.34375 0.21875 0
-0.3125 0.21875 0
-0.34375 0.1875 0
-0.3125 0.1875 0
-0.28125 0.21875 0
-0.25 0.21875 0
-0.28125 0.1875 0
-0.25 0.1875 0
-0.34375 0.15625 0
-0.3125 0.15625 0
-0.34375 0.125 0
-0.3125 0.125 0
-0.28125 0.15625 0
-0.25 0.15625 0
-0.28125 0.125 0
-0.25 0.125 0
-0.5 0.09375 0
-0.46875 0.09375 0
-0.4375 0.09375 0
-0.5 0.0625 0
-0.46875 0.0625 0
-0.4375 0.0625 0
-0.40625 0.09375 0
-0.375 0.09375 0
-0.40625 0.0625 0
-0.375 0.0625 0
-0.5 0.03125 0
-0.46875 0.03125 0
-0.4375 0.03125 0
-0.5 0 0
-0.46875 0 0
-0.4375 0 0
-0.40625 0.03125 0
-0.375 0.03125 0
-0.40625 0 0
-0.375 0 0
-0.34375 0.09375 0
-0.3125 0.09375 0
-0.34375 0.0625 0
-0.3125 0.0625 0
-0.28125 0.09375 0
-0.25 0.09375 0
-0.28125 0.0625 0
-0.25 0.0625 0
-0.34375 0.03125 0
-0.3125 0.03125 0
-0.34375 0 0
-0.3125 0 0
-0.28125 0.03125 0
-0.25 0.03125 0
-0.28125 0 0
-0.25 0 0
-0.21875 0.21875 0
-0.1875 0.21875 0
-0.21875 0.1875 0
-0.1875 0.1875 0
-0.15625 0.21875 0
-0.125 0.21875 0
-0.15625 0.1875 0
-0.125 0.1875 0
-0.21875 0.15625 0
-0.1875 0.15625 0
-0.21875 0.125 0
-0.1875 0.125 0
-0.15625 0.15625 0
-0.125 0.15625 0
-0.15625 0.125 0
-0.125 0.125 0
-0.09375 0.21875 0
-0.0625 0.21875 0
-0.09375 0.1875 0
-0.0625 0.1875 0
-0.03125 0.21875 0
0 0.21875 0
-0.03125 0.1875 0
0 0.1875 0
-0.09375 0.15625 0
-0.0625 0.15625 0
-0.09375 0.125 0
-0.0625 0.125 0
-0.03125 0.15625 0
0 0.15625 0
-0.03125 0.125 0
0 0.125 0
-0.21875 0.09375 0
-0.1875 0.09375 0
-0.21875 0.0625 0
-0.1875 0.0625 0
-0.15625 0.09375 0
-0.125 0.09375 0
-0.15625 0.0625 0
-0.125 0.0625 0
-0.21875 0.03125 0
-0.1875 0.03125 0
-0.21875 0 0
-0.1875 0 0
-0.15625 0.03125 0
-0.125 0.03125 0
-0.15625 0 0
-0.125 0 0
-0.09375 0.09375 0
-0.0625 0.09375 0
-0.09375 0.0625 0
-0.0625 0.0625 0
-0.03125 0.09375 0
0 0.09375 0
-0.03125 0.0625 0
0 0.0625 0
-0.09375 0.03125 0
-0.0625 0.03125 0
-0.09375 0 0
-0.0625 0 0
-0.03125 0.03125 0
0 0.03125 0
-0.03125 0 0
0 0 0
0.03125 0.46875 0
0.03125 0.5 0
0.0625 0.46875 0
0.0625 0.5 0
0.03125 0.4375 0
0.0625 0.4375 0
0.09375 0.46875 0
0.09375 0.5 0
0.125 0.46875 0
0.125 0.5 0
0.09375 0.4375 0
0.125 0.4375 0
0.03125 0.40625 0
0.0625 0.40625 0
0.03125 0.375 0
0.0625 0.375 0
0.09375 0.40625 0
0.125 0.40625 0
0.09375 0.375 0
0.125 0.375 0
0.15625 0.46875 0
0.15625 0.5 0
0.1875 0.46875 0
0.1875 0.5 0
0.15625 0.4375 0
0.1875 0.4375 0
0.21875 0.46875 0
0.21875 0.5 0
0.25 0.46875 0
0.25 0.5 0
0.21875 0.4375 0
0.25 0.4375 0
0.15625 0.40625 0
0.1875 0.40625 0
0.15625 0.375 0
0.1875 0.375 0
0.21875 0.40625 0
0.25 0.40625 0
0.21875 0.375 0
0.25 0.375 0
0.03125 0.34375 0
0.0625 0.34375 0
0.03125 0.3125 0
0.0625 0.3125 0
0.09375 0.34375 0
0.125 0.34375 0
0.09375 0.3125 0
0.125 0.3125 0
0.03125 0.28125 0
0.0625 0.28125 0
0.03125 0.25 0
0.0625 0.25 0
0.09375 0.28125 0
0.125 0.28125 0
0.09375 0.25 0
0.125 0.25 0
0.15625 0.34375 0
0.1875 0.34375 0
0.15625 0.3125 0
0.1875 0.3125 0
0.21875 0.34375 0
0.25 0.34375 0
0.21875 0.3125 0
0.25 0.3125 0
0.15625 0.28125 0
0.1875 0.28125 0
0.15625 0.25 0
0.1875 0.25 0
0.21875 0.28125 0
0.25 0.28125 0
0.21875 0.25 0
0.25 0.25 0
0.28125 0.46875 0
0.28125 0.5 0
0.3125 0.46875 0
0.3125 0.5 0
0.28125 0.4375 0
0.3125 0.4375 0
0.34375 0.46875 0
0.34375 0.5 0
0.375 0.46875 0
0.375 0.5 0
0.34375 0.4375 0
0.375 0.4375 0
0.28125 0.40625 0
0.3125 0.40625 0
0.28125 0.375 0
0.3125 0.375 0
0.34375 0.40625 0
0.375 0.40625 0
0.34375 0.375 0
0.375 0.375 0
0.40625 0.46875 0
0.40625 0.5 0
0.4375 0.46875 0
0.4375 0.5 0
0.40625 0.4375 0
0.4375 0.4375 0
0.46875 0.46875 0
0.46875 0.5 0
0.5 0.46875 0
0.5 0.5 0
0.46875 0.4375 0
0.5 0.4375 0
0.40625 0.40625 0
0.4375 0.40625 0
0.40625 0.375 0
0.4375 0.375 0
0.46875 0.40625 0
0.5 0.40625 0
0.46875 0.375 0
0.5 0.375 0
0.28125 0.34375 0
0.3125 0.34375 0
0.28125 0.3125 0
0.3125 0.3125 0
0.34375 0.34375 0
0.375 0.34375 0
0.34375 0.3125 0
0.375 0.3125 0
0.28125 0.28125 0
0.3125 0.28125 0
0.28125 0.25 0
0.3125 0.25 0
0.34375 0.28125 0
0.375 0.28125 0
0.34375 0.25 0
0.375 0.25 0
0.40625 0.34375 0
0.4375 0.34375 0
0.40625 0.3125 0
0.4375 0.3125 0
0.46875 0.34375 0
0.5 0.34375 0
0.46875 0.3125 0
0.5 0.3125 0
0.40625 0.28125 0
0.4375 0.28125 0
0.40625 0.25 0
0.4375 0.25 0
0.46875 0.28125 0
0.5 0.28125 0
0.46875 0.25 0
0.5 0.25 0
0.03125 0.21875 0
0.0625 0.21875 0
0.03125 0.1875 0
0.0625 0.1875 0
0.09375 0.21875 0
0.125 0.21875 0
0.09375 0.1875 0
0.125 0.1875 0
0.03125 0.15625 0
0.0625 0.15625 0
0.03125 0.125 0
0.0625 0.125 0
0.09375 0.15625 0
0.125 0.15625 0
0.09375 0.125 0
0.125 0.125 0
0.15625 0.21875 0
0.1875 0.21875 0
0.15625 0.1875 0
0.1875 0.1875 0
0.21875 0.21875 0
0.25 0.21875 0
0.21875 0.1875 0
0.25 0.1875 0
0.15625 0.15625 0
0.1875 0.15625 0
0.15625 0.125 0
0.1875 0.125 0
0.21875 0.15625 0
0.25 0.15625 0
0.21875 0.125 0
0.25 0.125 0
0.03125 0.09375 0
0.0625 0.09375 0
0.03125 0.0625 0
0.0625 0.0625 0
0.09375 0.09375 0
0.125 0.09375 0
0.09375 0.0625 0
0.125 0.0625 0
0.03125 0.03125 0
0.0625 0.03125 0
0.03125 0 0
0.0625 0 0
0.09375 0.03125 0
0.125 0.03125 0
0.09375 0 0
0.125 0 0
0.15625 0.09375 0
0.1875 0.09375 0
0.15625 0.0625 0
0.1875 0.0625 0
0.21875 0.09375 0
0.25 0.09375 0
0.21875 0.0625 0
0.25 0.0625 0
0.15625 0.03125 0
0.1875 0.03125 0
0.15625 0 0
0.1875 0 0
0.21875 0.03125 0
0.25 0.03125 0
0.21875 0 0
0.25 0 0
0.28125 0.21875 0
0.3125 0.21875 0
0.28125 0.1875 0
0.3125 0.1875 0
0.34375 0.21875 0
0.375 0.21875 0
0.34375 0.1875 0
0.375 0.1875 0
0.28125 0.15625 0
0.3125 0.15625 0
0.28125 0.125 0
0.3125 0.125 0
0.34375 0.15625 0
0.375 0.15625 0
0.34375 0.125 0
0.375 0.125 0
0.40625 0.21875 0
0.4375 0.21875 0
0.40625 0.1875 0
0.4375 0.1875 0
0.46875 0.21875 0
0.5 0.21875 0
0.46875 0.1875 0
0.5 0.1875 0
0.40625 0.15625 0
0.4375 0.15625 0
0.40625 0.125 0
0.4375 0.125 0
0.46875 0.15625 0
0.5 0.15625 0
0.46875 0.125 0
0.5 0.125 0
0.28125 0.09375 0
0.3125 0.09375 0
0.28125 0.0625 0
0.3125 0.0625 0
0.34375 0.09375 0
0.375 0.09375 0
0.34375 0.0625 0
0.375 0.0625 0
0.28125 0.03125 0
0.3125 0.03125 0
0.28125 0 0
0.3125 0 0
0.34375 0.03125 0
0.375 0.03125 0
0.34375 0 0
0.375 0 0
0.40625 0.09375 0
0.4375 0.09375 0
0.40625 0.0625 0
0.4375 0.0625 0
0.46875 0.09375 0
0.5 0.09375 0
0.46875 0.0625 0
0.5 0.0625 0
0.40625 0.03125 0
0.4375 0.03125 0
0.40625 0 0
0.4375 0 0
0.46875 0.03125 0
0.5 0.03125 0
0.46875 0 0
0.5 0 0
-0.5 -0.03125 0
-0.46875 -0.03125 0
-0.4375 -0.03125 0
-0.5 -0.0625 0
-0.46875 -0.0625 0
-0.4375 -0.0625 0
-0.40625 -0.03125 0
-0.375 -0.03125 0
-0.40625 -0.0625 0
-0.375 -0.0625 0
-0.5 -0.09375 0
-0.46875 -0.09375 0
-0.4375 -0.09375 0
-0.5 -0.125 0
-0.46875 -0.125 0
-0.4375 -0.125 0
-0.40625 -0.09375 0
-0.375 -0.09375 0
-0.40625 -0.125 0
-0.375 -0.125 0
-0.34375 -0.03125 0
-0.3125 -0.03125 0
-0.34375 -0.0625 0
-0.3125 -0.0625 0
-0.28125 -0.03125 0
-0.25 -0.03125 0
-0.28125 -0.0625 0
-0.25 -0.0625 0
-0.34375 -0.09375 0
-0.3125 -0.09375 0
-0.34375 -0.125 0
-0.3125 -0.125 0
-0.28125 -0.09375 0
-0.25 -0.09375 0
-0.28125 -0.125 0
-0.25 -0.125 0
-0.5 -0.15625 0
-0.46875 -0.15625 0
-0.4375 -0.15625 0
-0.5 -0.1875 0
-0.46875 -0.1875 0
-0.4375 -0.1875 0
-0.40625 -0.15625 0
-0.375 -0.15625 0
[...]
POINT_DATA 1089
SCALARS T float
LOOKUP_TABLE default
0
0
0
0
0
0
0
0
0
0
0
0
0
0
0
0
0
0
0
0
0
0
0
0
0
0
0
0
0
0
0
0
0
0
0
0
0
0
0
0
0
0
0
0
0
0
0
0
0
0
0
0
0
0
0
0
0
0
0
0
0
0
0
0
0
0
0
0
0
0
0
0
0
0
0
0
0
0
0
0
0
0
0
0
0
0
0
0
0
0
0
0
0
0
0
0
0
0
0
0
0
0
0
0
0
0
0
0
0
0
0
0
0
0
0
0
0
0
0
0
0
0
0
0
0
0
0
0
0
0
0
0
0
0
0
0
0
0
0
0
0
0
0
0
0
0
0
0
0
0
0
0
0
0
0
0
0
0
0
0
0
0
0
0
0
0
0
0
0
0
0
0
0
0
0
0
0
0
0
0
0
0
0
0
0
0
0
0
0
0
0
0
0
0
0
0
0
0
0
0
0
0
0
0
0
0
0
0
0
0
0
0
0
0
0
0.0307821
0.140793
0.000225473
0.114149
0.0965929
0.460509
0.38926
0.635347
0.85847
0.994554
0
0
0
0
0
0
0
0
0
0
0
0
0
0
0
0
0
0
0
0
0
0
0
0
0
0
0
0
0
0
0
0
0
0
0.248213
0.25381
0
0
0.157394
0.0417869
0.748213
0.75381
1
1
0.655932
0.430611
0.998538
0.888824
0
0
0
0
0
0
0
0
0.143427
0.00314116
0.521592
0.131306
0
0
0
0
0
0
0
0
0
0
0
0
0
0
0
0
0
0
0
0
0
0
0
0
0
0
0
0
0
0
0
0
0
0
0
0
0
0
0
0
0
0
0
0
0
0
0
0
0
0
0
0
0
0
0
0.0287158
0.0504807
0.218998
0.314431
0.704232
0
0
0
0
0
0
0
0
0.334975
0.216293
0.834975
0.687598
0.0498348
0
0.287137
0.0159979
0
0
0
0
0
0
0
0
0
0
0
0
0
0
0
0
0
0
0
0
0
0
0
0
0
0
0
0
0
0
0
0
0
0
0
0
0
0
0
0
0
0
0
0
0
0
0
0
0
0
0
0
0
0
0
0
0
0
0
0
0
0
0
0
0
0
0
0
0
0
0
0
0
0.161239
0
0.302477
0.646474
0.985235
0.802477
1
0
0.303229
0
0.160278
0.803229
1
0.64042
0.980143
1
0.971304
1
1
0.574014
0.10271
0.693861
0.193862
1
1
1
0.915521
0.662504
0.162504
0.472935
0.0574142
0
0.0270027
0
0
0.283718
0.615373
0.0265723
0.13523
0
0
0
0
0
0
0.00697526
0.0398779
0.693558
0.50425
0.193558
0.0887286
0.17141
0.00206006
0.00382858
0
0
0
0.0385583
0.00565568
0
0
0
0
0
0
0
0
0
0
0
0
0
0
0
0
0
0
0
0
0
0
0
0
0
0
0
0
0
0
0
0
0
0
0
0
0
0
0
0
0
0
0
0
0
0
0
0
0
0
0
0
0
0
0
0
0
0
0
0
0
0
0
0
0
0
0
0
0
0
0
0
0
0
0
0.0182754
0
0.123068
0
0
0
0
0
0
0
0.265734
0
0.337601
0.350561
0.832278
0.608986
0.985918
0.999992
1
1
1
0.765734
1
0.837601
1
1
1
1
1
0
0
0
0
0
0
0
0.325842
0
0.221752
0
0
0
0
0
0
0
0.0735705
0
0.00100121
0.825842
1
0.721752
1
1
1
1
1
0.51713
0.943559
0.225794
0.690201
1
1
0.965408
1
1
1
1
1
1
1
1
1
1
1
1
1
1
1
1
1
0.873831
0.404941
0.995666
0.646524
0.03111
0
0.150858
0
1
0.790045
1
0.850514
0.290045
0
0.350514
0
1
1
1
1
1
1
1
1
1
1
1
1
1
1
1
0.967449
1
0.825797
1
0.709761
0.325797
0
0.209761
0
0.938111
0.502734
0.689472
0.222465
0.0646225
0
0.000442543
0
0
0
0
0
0
0
0
0
0
0
0
0
0
0
0
0
0
0
0
0
0.0312335
0.265843
0
0.0192016
0.620709
0.853506
0.155301
0.353506
0
0
0
0
0
0
0
0
0
0
0
0
0
0
0
0
0
0
0
0
0
0
0
0
0
0
0
0
0
0
0
0
0
0
0
0
0
0
0
0
0
0
0
0
0.962179
0.96587
0.462179
0.46587
0.861483
0.628772
0.361483
0.161323
0
0
0
0
0
0
0
0
0.272298
0.0339112
0.0209376
0
0
0
0
0
0
0
0
0
0
0
0
0
0
0
0
0
0
0
0
0
0
0
0
0
0
0
0
0
0
0
0
0
0
0
0
0
0
0
0
0
0
0
0
0
0
0.0301549
0
0.137493
0.251936
0.504684
0.602298
0.964806
0
0.178053
0
0.072328
0.678053
1
0.430924
0.81132
0.47912
0.212991
0.940561
0.540357
0.0167739
0
0.0997958
0
1
0.6421
0.801866
0.40822
0.1421
0
0.059078
0
0
0.00161307
0
0
0.110209
0.31132
0
0
0
0
0
0
0
0
0
0
0.339371
0.136647
0.0375051
0.0375051
0
0
0
0
0
0
0
0
0
0
0
0
0
0
0
0
0
0
0
0
0
0
0
0
0
0
0
0
0
0
0
0
0
0
0
0
0
0
0
0
0
0
0
0
0
0
0
0
0
0
0
0
0
0
0
0
0
0
0
0
0
0
0
0
0
0
0
0
0
0
0
0
0
0
0
0
0
0
0
0
0
0
0
0
0
0
0
0
0
0
0
0
0
0
0
0
0
0
0
0
0
0
0
0
0
0
0
0
0
0
0
0
0
0
0
0
0
0
0
0
0
0
0
0
0
0
0
0
0
0
0
0
0
0
0
0
0
0
0
0
0
0
0
0
0
0
0
0
0
0
0
0
0
0
0
0
0
0
0
0
0
0
0
0
0
0
0
0
0
0
0
0
0
0
0
0
0
0
0
0
0
0
0
0
0
0
0
0
0
0
0
0
0
0
0
0
0
0
0
0
0
0
0
0

SCALARS P float
LOOKUP_TABLE default
-0.0110342
-0.0110477
-0.0110136
-0.011036
-0.0110808
-0.0110826
-0.0110358
-0.0110423
-0.0110679
-0.0111275
-0.0111442
-0.0111805
-0.0112135
-0.0111063
-0.0111503
-0.0110118
-0.0110181
-0.011043
-0.010959
-0.0109739
-0.0110057
-0.0110797
-0.0111209
-0.0110478
-0.0110925
-0.0112328
-0.0112823
-0.0112772
-0.0113413
-0.0111934
-0.0112298
-0.0113063
-0.0113755
-0.0113187
-0.0113806
-0.011255
-0.0112685
-0.0111604
-0.0111928
-0.0111336
-0.0111659
-0.0112147
-0.0112259
-0.0111857
-0.0111922
-0.0108766
-0.0109096
-0.0109566
-0.010766
-0.0108274
-0.0108977
-0.0110112
-0.0110658
-0.0109721
-0.0110433
-0.0106326
-0.0107312
-0.0108323
-0.0104876
-0.0106282
-0.0107647
-0.0109335
-0.0110286
-0.0108991
-0.0110257
-0.011114
-0.01115
-0.0111048
-0.0111494
-0.0111692
-0.0111698
-0.0111706
-0.0111653
-0.0111107
-0.0111707
-0.0111378
-0.0112227
-0.0111983
-0.0111877
-0.0112625
-0.0112479
-0.0113267
-0.0113799
-0.0113419
-0.0113945
-0.0112773
-0.0112889
-0.0113713
-0.0114344
-0.0114112
-0.011484
-0.0113093
-0.0113407
-0.0112303
-0.0112336
-0.011188
-0.0111776
-0.0112414
-0.011259
-0.0111663
-0.0111605
-0.0114531
-0.0115175
-0.0115047
-0.0115407
-0.0113846
-0.0114524
-0.0115781
-0.0115677
-0.0116877
-0.0116132
-0.0115593
-0.0117249
-0.0112938
-0.0113622
-0.0111708
-0.011218
-0.0114847
-0.0116932
-0.0113302
-0.0115582
-0.0111535
-0.011124
-0.0111342
-0.0110819
-0.0110856
-0.0110434
-0.0110108
-0.0109208
-0.0111397
-0.011062
-0.0111809
-0.0110803
-0.0109539
-0.0108049
-0.0109435
-0.0107414
-0.0110064
-0.010998
-0.0108155
-0.0107155
-0.011052
-0.0112407
-0.010653
-0.0107143
-0.0106046
-0.0103571
-0.010441
-0.0100108
-0.0100777
-0.00983249
-0.00942139
-0.00861927
-0.0103433
-0.0105254
-0.0106991
-0.010215
-0.0104301
-0.0106373
-0.0108712
-0.0110375
-0.0108503
-0.0110665
-0.0101138
-0.0103449
-0.0105776
-0.0100351
-0.0102619
-0.0105088
-0.0108348
-0.011114
-0.0108098
-0.0111661
-0.0111921
-0.0113157
-0.0112822
-0.0114693
-0.0113779
-0.0113617
-0.0115726
-0.0115546
-0.0114188
-0.0117121
-0.0116057
-0.0120885
-0.0118841
-0.0118549
-0.0124016
-0.012336
-0.00996371
-0.0101661
-0.0104116
-0.00988263
-0.0100378
-0.0102627
-0.0107605
-0.0112247
-0.0106598
-0.0112565
-0.00976522
-0.00984826
-0.0100234
-0.00961288
-0.0095939
-0.00965194
-0.010439
-0.0111329
-0.00991566
-0.0103443
-0.0118849
-0.0127618
-0.0123024
-0.0140889
-0.0134145
-0.0132559
-0.0138839
-0.00710343
-0.012566
-0.0080945
-0.0058743
0.013471
0.00753025
0.023581
0.0373754
0.0476593
-0.0112721
-0.0111558
-0.0114277
-0.0113016
-0.0110121
-0.010783
-0.0111932
-0.010994
-0.0116522
-0.0115178
-0.0119439
-0.0117655
-0.0115131
-0.0114261
-0.0119966
-0.0121464
-0.0104085
-0.00981611
-0.010607
-0.00994573
-0.00895193
-0.0076076
-0.00898349
-0.00746266
-0.011096
-0.0104675
-0.01189
-0.0113243
-0.00957002
-0.00824112
-0.0106296
-0.00985707
-0.0124386
-0.0121254
0.000582558
0.00104806
-0.0128138
-0.0133842
-0.00608987
-0.013739
0.0314011
0.0316109
0.0487644
0.0487158
0.0245732
0.00912202
0.0479825
0.0390382
-0.0130913
-0.0124056
-0.0151432
-0.0136423
-0.011847
-0.0116294
-0.012792
-0.012742
-0.00834027
-0.01465
0.0152406
-0.00669098
-0.0133546
-0.013236
-0.0130161
-0.0130409
-0.0118407
-0.0116842
-0.0120375
-0.0117819
-0.0119618
-0.0122764
-0.0122576
-0.0118925
-0.0124639
-0.0119936
-0.0126444
-0.0130154
-0.0120131
-0.012472
-0.0119514
-0.0125836
-0.0130559
-0.0137094
-0.0134808
-0.0146131
-0.0125783
-0.0120425
-0.0125306
-0.0120063
-0.0132399
-0.0131642
-0.0123536
-0.011897
-0.0121179
-0.0117461
-0.0128693
-0.0125052
-0.0141316
-0.0139866
-0.0153874
-0.0150879
-0.013471
-0.0129028
-0.0141612
-0.0132722
-0.0116544
-0.0124449
-0.0110402
-0.011872
-0.0137794
-0.0158442
-0.0138312
-0.017551
-0.00978857
-0.0101498
-0.00760268
-0.00347
-0.00637331
0.0125293
0.0271454
0.0742013
-0.0173824
-0.0167169
-0.0203962
-0.0190548
-0.0149268
-0.0135095
-0.0157311
-0.0134846
0.0268345
0.0102616
0.0946193
0.0724892
-0.00953737
-0.0125204
0.0216291
-0.00816862
-0.0118683
-0.0115816
-0.011635
-0.0114217
-0.01214
-0.0118156
-0.0114371
-0.0112824
-0.0112797
-0.011169
-0.011552
-0.0113497
-0.0123773
-0.0119413
-0.0125337
-0.0119702
-0.0116074
-0.0113633
-0.0115708
-0.0112978
-0.0111641
-0.0110857
-0.0110875
-0.0110322
-0.0112047
-0.0111094
-0.0110457
-0.0110075
-0.0110342
-0.0110059
-0.0110556
-0.0110358
-0.0111958
-0.0110901
-0.0111226
-0.0110201
-0.0110323
-0.0110118
-0.0109702
-0.010959
-0.0125122
-0.0118317
-0.0122291
-0.0114712
-0.0113978
-0.0111274
-0.0110582
-0.0108369
-0.0113142
-0.0106965
-0.00954924
-0.00953192
-0.0104652
-0.010394
-0.00968712
-0.00985835
-0.0109711
-0.0108926
-0.0107346
-0.0107057
-0.0108664
-0.0108766
-0.0107213
-0.010766
-0.0104058
-0.010462
-0.0100271
-0.0101895
-0.0105404
-0.0106326
-0.0103416
-0.0104876
-0.00560387
0.0123499
-0.00521224
0.0263723
0.0641996
0.104341
0.079065
0.10376
-0.00631712
0.025883
-0.008887
0.00888716
0.0801547
0.105075
0.0650664
0.1078
0.110196
0.10445
0.106039
0.10368
0.0558418
0.00366642
0.0671003
0.0144662
0.106112
0.102966
0.110173
0.0958732
0.0638712
0.0117733
0.044589
0.000453876
-0.0117466
-0.00919209
-0.0133282
-0.014767
0.021276
0.0640704
-0.0140735
-0.0008959
-0.013864
-0.0152142
-0.013769
-0.0151829
-0.0175374
-0.0199245
-0.015912
-0.011082
0.0743509
0.0477928
0.00734979
-0.00509843
0.009028
-0.008034
-0.0129702
-0.0110133
-0.0198357
-0.0170012
-0.0109096
-0.0151712
-0.01398
-0.0121056
-0.0141361
-0.012715
-0.00701966
-0.00804929
-0.00507874
-0.00692272
-0.00877286
-0.009273
-0.00806656
-0.00881796
-0.00488843
-0.00678785
-0.00612324
-0.00742105
-0.00792825
-0.00868574
-0.00824584
-0.00882546
-0.00963504
-0.00991584
-0.00932622
-0.00969386
-0.0101442
-0.0103433
-0.00997723
-0.010215
-0.0092002
-0.00957452
-0.00923834
-0.00955197
-0.00986583
-0.0101138
-0.00980709
-0.0100351
-0.00830289
-0.00859379
-0.0100874
-0.00969346
-0.00889101
-0.00916331
-0.00956141
-0.00955285
-0.0110253
-0.0104141
-0.0116396
-0.0109265
-0.0100575
-0.00986592
-0.0104311
-0.0101105
-0.00939645
-0.00959878
-0.009601
-0.00967605
-0.00978221
-0.00996371
-0.00976806
-0.00988263
-0.00977153
-0.00973368
-0.00990359
-0.00976694
-0.00973234
-0.00976522
-0.00967364
-0.00961288
-0.009423
-0.00927453
-0.0091597
-0.00925342
-0.00900075
-0.00874254
-0.00912948
-0.00790014
-0.00847994
-0.00116353
-0.00916509
-0.00887515
-0.00854828
-0.00920858
-0.00897412
-0.00876778
-0.00817028
0.0068216
-0.00856424
0.0105903
0.00996317
0.0359208
0.0246187
0.0445575
0.0462583
0.047959
0.046768
0.0482493
0.0332823
0.0456993
0.0376935
0.0463429
0.0472135
0.0484768
0.0475643
0.0486128
-0.00936003
-0.00924274
-0.00928191
-0.00951722
-0.00943475
-0.00947916
-0.00944834
0.00955101
-0.00962173
0.00354328
-0.00971633
-0.00965277
-0.00965409
-0.00997334
-0.00999301
-0.0101117
-0.00969615
-0.00521483
-0.0103707
-0.0105494
0.037531
0.0468496
0.0311891
0.0462219
0.0477788
0.0486561
0.0474033
0.0484104
0.0190816
0.0425835
0.00159633
0.0279763
0.0468579
0.0479553
0.0446352
0.0475759
0.0488101
0.0488113
0.049027
0.0490025
0.048002
0.0464498
0.0481092
0.0464862
0.04912
0.049081
0.0491706
0.0491327
0.0483045
0.0468709
0.0484544
0.0472588
0.0374329
0.0107683
0.0444117
0.0249071
-0.00973618
-0.012089
-0.00182973
-0.0108272
0.0451258
0.0330892
0.045875
0.0373036
0.00633199
-0.00969967
0.0100533
-0.00928526
0.0491728
0.0491213
0.0490487
0.0489976
0.0484342
0.0472839
0.0481242
0.046666
0.0487225
0.0486883
0.0484016
0.048517
0.0476414
0.0460056
0.0475856
0.044232
0.0459534
0.0361543
0.0447533
0.0290398
0.00873514
-0.00936883
0.002813
-0.00875196
0.0406518
0.0174086
0.0264164
0.000381417
-0.00496095
-0.0086121
-0.0102478
-0.00974804
-0.0102145
-0.0102962
-0.0104899
-0.0104162
-0.010526
-0.0107293
-0.0108865
-0.0115577
-0.0110896
-0.0116888
-0.0105818
-0.0106935
-0.0108731
-0.0107123
-0.010813
-0.0109625
-0.0111485
-0.0115535
-0.0111705
-0.011447
-0.0108801
0.0015922
-0.0127086
-0.0133295
0.0224197
0.0372832
-0.00611001
0.00656575
-0.0121314
-0.0130377
-0.0117866
-0.0122076
-0.0136318
-0.0131755
-0.0124004
-0.0121061
-0.0108189
-0.0109018
-0.0110201
-0.0109014
-0.010964
-0.0110536
-0.0111742
-0.0113623
-0.0111676
-0.0112999
-0.0109656
-0.0110089
-0.0110747
-0.0110059
-0.011036
-0.0110826
-0.0111586
-0.0112532
-0.0111442
-0.0112135
-0.0115705
-0.0117933
-0.0114379
-0.0115693
-0.0118838
-0.011751
-0.0116243
-0.0115685
-0.0113483
-0.0114323
-0.0112823
-0.0113413
-0.0114737
-0.01146
-0.0113755
-0.0113806
0.0447004
0.0451088
0.0140017
0.0141678
0.0376932
0.0220519
0.00661299
-0.006743
-0.0124377
-0.0125794
-0.0117116
-0.0117489
-0.0134349
-0.013989
-0.0122085
-0.0125889
0.000374296
-0.0119883
-0.0144302
-0.0134643
-0.0117976
-0.010647
-0.0118588
-0.0109502
-0.0135982
-0.0125965
-0.01251
-0.0120792
-0.0117325
-0.011119
-0.011619
-0.0112323
-0.011583
-0.011595
-0.0114968
-0.0115029
-0.011809
-0.0120101
-0.0116109
-0.0117267
-0.011437
-0.0114476
-0.0113799
-0.0113945
-0.0115077
-0.0115773
-0.0114344
-0.011484
-0.0119957
-0.0117997
-0.0117371
-0.0116556
-0.0115561
-0.0113268
-0.0115392
-0.011424
-0.0116001
-0.0115823
-0.0115175
-0.0115407
-0.0115488
-0.011521
-0.0115677
-0.0116132
-0.0131823
-0.00968695
-0.0122603
0.0105159
0.0290276
0.0755082
0.0934726
0.16025
-0.0104823
0.0200792
-0.00902959
0.00385096
0.106183
0.162513
0.0639157
0.128123
0.071256
0.023082
0.155369
0.081375
-0.0111609
-0.0128715
0.0030596
-0.0129543
0.161631
0.0972851
0.121609
0.0514389
0.0117669
-0.0113691
-0.00372616
-0.0115323
-0.00879691
-0.00751095
-0.0084188
-0.0077361
0.0117748
0.0460866
-0.00627812
-0.00557742
-0.00844356
-0.00799297
-0.00917156
-0.00864938
-0.00698659
-0.0064925
-0.00795316
-0.00762571
0.0410445
0.00253717
-0.00371413
-0.00578269
-0.0135847
-0.0114555
-0.00966445
-0.00944278
-0.00527548
-0.00613936
-0.00698026
-0.00734859
-0.00866613
-0.00917974
-0.00866079
-0.00912362
-0.0118771
-0.0111428
-0.0119107
-0.0111706
-0.0106041
-0.0102252
-0.0106466
-0.0102584
-0.0111313
-0.0107949
-0.0109122
-0.0106248
-0.0104598
-0.0101667
-0.0103348
-0.0100989
-0.00995519
-0.0097507
-0.0099615
-0.00971527
-0.00957986
-0.009423
-0.00948827
-0.00925342
-0.00990763
-0.00966877
-0.00987647
-0.00966398
-0.00942957
-0.00916509
-0.00944569
-0.00920858
-0.0106151
-0.0103725
-0.00977706
-0.00994237
-0.0101765
-0.0100209
-0.00996847
-0.00993374
-0.00966526
-0.0098707
-0.00958256
-0.00980855
-0.00994492
-0.00995146
-0.00993383
-0.00998603
-0.00985911
-0.0096957
-0.0098551
-0.00975312
-0.00952761
-0.00936003
-0.00963655
-0.00951722
-0.00991836
-0.00986181
-0.0100007
-0.00999337
-0.0097895
-0.00971633
-0.00997599
-0.00997334
-0.00983937
-0.00927757
-0.0102953
-0.00982755
-0.00874499
-0.00848173
-0.00943124
-0.00921668
-0.0106347
-0.0102682
-0.0109037
-0.0106433
-0.00997068
-0.00979765
-0.0104343
-0.0103052
-0.00818533
-0.00838884
-0.0090445
-0.00913768
-0.00905207
-0.00938037
-0.00946695
-0.00967493
-0.00968571
-0.00972306
-0.0102247
-0.010226
-0.00988773
-0.0100138
-0.0102944
-0.0103531
-0.0111226
-0.0109579
-0.011323
-0.0112471
-0.0108279
-0.0107452
-0.0111924
-0.0111601
-0.0115089
-0.011518
-0.0116842
-0.0117819
-0.0115407
-0.011567
-0.0118925
-0.0119936
-0.0106913
-0.0106757
-0.0111329
-0.0111073
-0.0106891
-0.0106968
-0.0110797
-0.0110396
-0.0115723
-0.0115419
-0.0120425
-0.0120063
-0.0114778
-0.0113883
-0.011897
-0.0117461
-0.00971617
-0.00990536
-0.00990146
-0.0100447
-0.0100284
-0.010092
-0.0101509
-0.0102154
-0.0101547
-0.0102495
-0.0104233
-0.0104703
-0.0103245
-0.0103738
-0.0105099
-0.0105372
-0.010128
-0.0101493
-0.0102622
-0.0103011
-0.0101693
-0.0102145
-0.0103448
-0.0104162
-0.0104149
-0.010455
-0.0105645
-0.0105966
-0.0105049
-0.0105818
-0.0106421
-0.0107123
-0.0107095
-0.0107103
-0.0109979
-0.0109509
-0.0107108
-0.0107092
-0.0109095
-0.0108747
-0.0112903
-0.0111911
-0.0115816
-0.0114217
-0.0111035
-0.0110313
-0.0112824
-0.011169
-0.0107145
-0.0107303
-0.0108535
-0.0108484
-0.0107628
-0.0108189
-0.0108633
-0.0109014
-0.0109799
-0.010951
-0.0110857
-0.0110322
-0.010946
-0.0109656
-0.0110075
-0.0110136

SCALARS U float
LOOKUP_TABLE default
0.0158669
0.0153921
0.0154352
0.0148909
0.0149701
0.014338
0.0162558
0.0158324
0.0154837
0.014655
0.0138547
0.0145218
0.0135333
0.0152587
0.0152173
0.016605
0.0161939
0.0158697
0.0169046
0.0164679
0.0161251
0.0156765
0.0156636
0.0159171
0.0158871
0.0146598
0.0134972
0.015171
0.0139137
0.0154242
0.0159426
0.0161515
0.0149769
0.0176367
0.0168143
0.0168187
0.0180505
0.0158804
0.0163689
0.0160772
0.0165206
0.0171511
0.0182098
0.0172298
0.0181835
0.0171468
0.0166479
0.0162472
0.0173249
0.0167299
0.0162338
0.0159833
0.0158982
0.0158743
0.0156963
0.0174295
0.0167107
0.0160835
0.0174555
0.0165937
0.0157988
0.0155857
0.0152694
0.0151092
0.0145871
0.0160342
0.0164254
0.01575
0.0160803
0.0170862
0.0179975
0.0167158
0.0176475
0.0152003
0.0154473
0.0143226
0.0144263
0.0160722
0.0170934
0.0150333
0.0162288
0.0195396
0.0193407
0.021621
0.0221785
0.0195594
0.0211832
0.0235594
0.024783
0.0250753
0.0266836
0.0227155
0.0239767
0.019475
0.0208247
0.0193154
0.0205202
0.0221109
0.0232047
0.0216714
0.0226584
0.0260487
0.0277271
0.0265104
0.0280326
0.0248741
0.0254045
0.0265647
0.0278117
0.0263198
0.0272571
0.0256231
0.0255941
0.0240301
0.0245722
0.0234083
0.0238999
0.0248708
0.024976
0.0241755
0.0242943
0.0190913
0.0202588
0.0188016
0.0200465
0.0213662
0.0222922
0.0212117
0.0221401
0.0184302
0.0199033
0.0179302
0.0198719
0.0212683
0.0223028
0.0216756
0.0230181
0.0229503
0.0233047
0.022715
0.0228879
0.0234116
0.0233509
0.0227403
0.0223553
0.0228538
0.0228972
0.0237356
0.0239367
0.0225758
0.0220484
0.0239011
0.0239864
0.0174228
0.0163986
0.0153891
0.017373
0.0161572
0.0148593
0.0144263
0.0135807
0.013481
0.0120827
0.0173696
0.015911
0.0141943
0.0174666
0.0156881
0.0133377
0.0121294
0.00973057
0.0101389
0.00600631
0.0129734
0.0127904
0.0108221
0.0100204
0.0133235
0.0148074
0.0102994
0.0122464
0.00718666
0.00504894
0.00111936
-0.0036038
0.00463944
0.00735265
-0.00552817
-0.00161594
0.0177509
0.0155673
0.0123388
0.0183196
0.0157956
0.0116927
0.0075005
0.000870915
0.00524059
-0.00336783
0.0194658
0.0170327
0.0128804
0.0215508
0.0202308
0.0180103
0.00672223
0.000309561
0.0158806
0.0166371
-0.00738697
-0.0158441
-0.0136912
-0.023425
-0.019624
-0.0134156
-0.0251888
-0.0147796
-0.00533587
-0.00814348
0.0206314
0.0274503
-0.00267752
0.00847438
0.0358096
0.0383515
0.017177
0.0199984
0.015874
0.0203875
0.0226172
0.0245081
0.0245154
0.0272661
0.0134496
0.0213662
0.00905756
0.0234581
0.028426
0.0326039
0.0360081
0.0425212
0.0254798
0.0258757
0.0283682
0.0285097
0.0260544
0.0265779
0.0282613
0.0282829
0.0335136
0.0325263
0.0425108
0.0389223
0.0310952
0.029954
0.0349721
0.0318372
0.00362831
0.0263894
0.00447772
0.0273546
0.0464742
0.0567165
0.0489423
0.0629261
0.0171192
0.0223859
0.0298107
0.0145233
0.0297766
0.0408379
0.00264549
0.00201638
0.0554291
0.0477436
0.0635522
0.0542654
0.0396352
0.0332128
0.0433121
0.0341393
0.0473948
0.0449539
0.00971943
0.0164585
0.0386234
0.0320617
0.0199995
0.0215538
0.0258585
0.0264972
0.0252148
0.025593
0.0253749
0.0249677
0.0243927
0.024565
0.0234096
0.0234368
0.0243456
0.0234947
0.0249502
0.0247652
0.0243586
0.0243268
0.0243743
0.0237246
0.0242765
0.0241373
0.0223095
0.0222642
0.0212195
0.0211522
0.0224034
0.0212548
0.0202873
0.0201816
0.0195663
0.0193984
0.0203295
0.0196817
0.0226344
0.0213591
0.0231728
0.0217182
0.0204361
0.0198885
0.0208703
0.0204863
0.0233
0.0233586
0.0220725
0.022641
0.0242021
0.0254725
0.0256972
0.0292283
0.0221106
0.0245631
0.0249051
0.0276147
0.0286273
0.0299794
0.0280577
0.0240994
0.0246124
0.0224501
0.0274384
0.0230779
0.0218023
0.021831
0.0224977
0.0235659
0.0274827
0.0231368
0.0241991
0.0233336
0.0208358
0.022825
0.0171842
0.0181715
0.0190093
0.0187813
0.018551
0.018277
0.0192061
0.0188158
0.0181376
0.0178376
0.0177253
0.0174146
0.0184472
0.0180566
0.019495
0.0191615
0.020112
0.0197459
0.0188234
0.0184377
0.0193633
0.0189209
0.0172942
0.016979
0.0168369
0.016511
0.0176332
0.0171818
0.0163568
0.0160027
0.0158669
0.0154785
0.0167155
0.0162558
0.0180049
0.0175403
0.0184313
0.0179165
0.0170646
0.016605
0.0173982
0.0169046
0.0213497
0.0207383
0.0231532
0.0220989
0.0201569
0.0195485
0.0211664
0.0202944
0.0243022
0.0233495
0.0226157
0.02313
0.0221524
0.0210209
0.0224033
0.0213715
0.0189263
0.0183095
0.0194725
0.0187065
0.0177096
0.0171468
0.0179891
0.0173249
0.0199914
0.019065
0.0203147
0.0193128
0.0182152
0.0174295
0.0183619
0.0174555
0.0264495
0.0243328
0.0259912
0.0187006
0.0216819
0.0207657
0.0155903
0.0215065
0.0275553
0.0210776
0.0306984
0.0304173
0.0172005
0.0226632
0.0274569
0.0267938
0.0245108
0.0268507
0.0275245
0.0326611
0.0229523
0.0210376
0.0354448
0.0301463
0.0297752
0.0359441
0.0315663
0.0347241
0.0385954
0.0314969
0.0327462
0.0278497