# vtk DataFile Version 2.0
Gerris simulation version 1.3.2 (131206-155120)
ASCII
DATASET UNSTRUCTURED_GRID

POINTS 1089 float
-0.5 0.46875 0
-0.46875 0.46875 0
-0.5 0.5 0
-0.46875 0.5 0
-0.4375 0.46875 0
-0.4375 0.5 0
-0.5 0.4375 0
-0.46875 0.4375 0
-0.4375 0.4375 0
-0.40625 0.46875 0
-0.40625 0.5 0
-0.375 0.46875 0
-0.375 0.5 0
-0.40625 0.4375 0
-0.375 0.4375 0
-0.5 0.40625 0
-0.46875 0.40625 0
-0.4375 0.40625 0
-0.5 0.375 0
-0.46875 0.375 0
-0.4375 0.375 0
-0.40625 0.40625 0
-0.375 0.40625 0
-0.40625 0.375 0
-0.375 0.375 0
-0.34375 0.46875 0
-0.34375 0.5 0
-0.3125 0.46875 0
-0.3125 0.5 0
-0.34375 0.4375 0
-0.3125 0.4375 0
-0.28125 0.46875 0
-0.28125 0.5 0
-0.25 0.46875 0
-0.25 0.5 0
-0.28125 0.4375 0
-0.25 0.4375 0
-0.34375 0.40625 0
-0.3125 0.40625 0
-0.34375 0.375 0
-0.3125 0.375 0
-0.28125 0.40625 0
-0.25 0.40625 0
-0.28125 0.375 0
-0.25 0.375 0
-0.5 0.34375 0
-0.46875 0.34375 0
-0.4375 0.34375 0
-0.5 0.3125 0
-0.46875 0.3125 0
-0.4375 0.3125 0
-0.40625 0.34375 0
-0.375 0.34375 0
-0.40625 0.3125 0
-0.375 0.3125 0
-0.5 0.28125 0
-0.46875 0.28125 0
-0.4375 0.28125 0
-0.5 0.25 0
-0.46875 0.25 0
-0.4375 0.25 0
-0.40625 0.28125 0
-0.375 0.28125 0
-0.40625 0.25 0
-0.375 0.25 0
-0.34375 0.34375 0
-0.3125 0.34375 0
-0.34375 0.3125 0
-0.3125 0.3125 0
-0.28125 0.34375 0
-0.25 0.34375 0
-0.28125 0.3125 0
-0.25 0.3125 0
-0.34375 0.28125 0
-0.3125 0.28125 0
-0.34375 0.25 0
-0.3125 0.25 0
-0.28125 0.28125 0
-0.25 0.28125 0
-0.28125 0.25 0
-0.25 0.25 0
-0.21875 0.46875 0
-0.21875 0.5 0
-0.1875 0.46875 0
-0.1875 0.5 0
-0.21875 0.4375 0
-0.1875 0.4375 0
-0.15625 0.46875 0
-0.15625 0.5 0
-0.125 0.46875 0
-0.125 0.5 0
-0.15625 0.4375 0
-0.125 0.4375 0
-0.21875 0.40625 0
-0.1875 0.40625 0
-0.21875 0.375 0
-0.1875 0.375 0
-0.15625 0.40625 0
-0.125 0.40625 0
-0.15625 0.375 0
-0.125 0.375 0
-0.09375 0.46875 0
-0.09375 0.5 0
-0.0625 0.46875 0
-0.0625 0.5 0
-0.09375 0.4375 0
-0.0625 0.4375 0
-0.03125 0.46875 0
-0.03125 0.5 0
0 0.46875 0
0 0.5 0
-0.03125 0.4375 0
0 0.4375 0
-0.09375 0.40625 0
-0.0625 0.40625 0
-0.09375 0.375 0
-0.0625 0.375 0
-0.03125 0.40625 0
0 0.40625 0
-0.03125 0.375 0
0 0.375 0
-0.21875 0.34375 0
-0.1875 0.34375 0
-0.21875 0.3125 0
-0.1875 0.3125 0
-0.15625 0.34375 0
-0.125 0.34375 0
-0.15625 0.3125 0
-0.125 0.3125 0
-0.21875 0.28125 0
-0.1875 0.28125 0
-0.21875 0.25 0
-0.1875 0.25 0
-0.15625 0.28125 0
-0.125 0.28125 0
-0.15625 0.25 0
-0.125 0.25 0
-0.09375 0.34375 0
-0.0625 0.34375 0
-0.09375 0.3125 0
-0.0625 0.3125 0
-0.03125 0.34375 0
0 0.34375 0
-0.03125 0.3125 0
0 0.3125 0
-0.09375 0.28125 0
-0.0625 0.28125 0
-0.09375 0.25 0
-0.0625 0.25 0
-0.03125 0.28125 0
0 0.28125 0
-0.03125 0.25 0
0 0.25 0
-0.5 0.21875 0
-0.46875 0.21875 0
-0.4375 0.21875 0
-0.5 0.1875 0
-0.46875 0.1875 0
-0.4375 0.1875 0
-0.40625 0.21875 0
-0.375 0.21875 0
-0.40625 0.1875 0
-0.375 0.1875 0
-0.5 0.15625 0
-0.46875 0.15625 0
-0.4375 0.15625 0
-0.5 0.125 0
-0.46875 0.125 0
-0.4375 0.125 0
-0.40625 0.15625 0
-0.375 0.15625 0
-0.40625 0.125 0
-0.375 0.125 0
-0.34375 0.21875 0
-0.3125 0.21875 0
-0.34375 0.1875 0
-0.3125 0.1875 0
-0.28125 0.21875 0
-0.25 0.21875 0
-0.28125 0.1875 0
-0.25 0.1875 0
-0.34375 0.15625 0
-0.3125 0.15625 0
-0.34375 0.125 0
-0.3125 0.125 0
-0.28125 0.15625 0
-0.25 0.15625 0
-0.28125 0.125 0
-0.25 0.125 0
-0.5 0.09375 0
-0.46875 0.09375 0
-0.4375 0.09375 0
-0.5 0.0625 0
-0.46875 0.0625 0
-0.4375 0.0625 0
-0.40625 0.09375 0
-0.375 0.09375 0
-0.40625 0.0625 0
-0.375 0.0625 0
-0.5 0.03125 0
-0.46875 0.03125 0
-0.4375 0.03125 0
-0.5 0 0
-0.46875 0 0
-0.4375 0 0
-0.40625 0.03125 0
-0.375 0.03125 0
-0.40625 0 0
-0.375 0 0
-0.34375 0.09375 0
-0.3125 0.09375 0
-0.34375 0.0625 0
-0.3125 0.0625 0
-0.28125 0.09375 0
-0.25 0.09375 0
-0.28125 0.0625 0
-0.25 0.0625 0
-0.34375 0.03125 0
-0.3125 0.03125 0
-0.34375 0 0
-0.3125 0 0
-0.28125 0.03125 0
-0.25 0.03125 0
-0.28125 0 0
-0.25 0 0
-0.21875 0.21875 0
-0.1875 0.21875 0
-0.21875 0.1875 0
-0.1875 0.1875 0
-0.15625 0.21875 0
-0.125 0.21875 0
-0.15625 0.1875 0
-0.125 0.1875 0
-0.21875 0.15625 0
-0.1875 0.15625 0
-0.21875 0.125 0
-0.1875 0.125 0
-0.15625 0.15625 0
-0.125 0.15625 0
-0.15625 0.125 0
-0.125 0.125 0
-0.09375 0.21875 0
-0.0625 0.21875 0
-0.09375 0.1875 0
-0.0625 0.1875 0
-0.03125 0.21875 0
0 0.21875 0
-0.03125 0.1875 0
0 0.1875 0
-0.09375 0.15625 0
-0.0625 0.15625 0
-0.09375 0.125 0
-0.0625 0.125 0
-0.03125 0.15625 0
0 0.15625 0
-0.03125 0.125 0
0 0.125 0
-0.21875 0.09375 0
-0.1875 0.09375 0
-0.21875 0.0625 0
-0.1875 0.0625 0
-0.15625 0.09375 0
-0.125 0.09375 0
-0.15625 0.0625 0
-0.125 0.0625 0
-0.21875 0.03125 0
-0.1875 0.03125 0
-0.21875 0 0
-0.1875 0 0
-0.15625 0.03125 0
-0.125 0.03125 0
-0.15625 0 0
-0.125 0 0
-0.09375 0.09375 0
-0.0625 0.09375 0
-0.09375 0.0625 0
-0.0625 0.0625 0
-0.03125 0.09375 0
0 0.09375 0
-0.03125 0.0625 0
0 0.0625 0
-0.09375 0.03125 0
-0.0625 0.03125 0
-0.09375 0 0
-0.0625 0 0
-0.03125 0.03125 0
0 0.03125 0
-0.03125 0 0
0 0 0
0.03125 0.46875 0
0.03125 0.5 0
0.0625 0.46875 0
0.0625 0.5 0
0.03125 0.4375 0
0.0625 0.4375 0
0.09375 0.46875 0
0.09375 0.5 0
0.125 0.46875 0
0.125 0.5 0
0.09375 0.4375 0
0.125 0.4375 0
0.03125 0.40625 0
0.0625 0.40625 0
0.03125 0.375 0
0.0625 0.375 0
0.09375 0.40625 0
0.125 0.40625 0
0.09375 0.375 0
0.125 0.375 0
0.15625 0.46875 0
0.15625 0.5 0
0.1875 0.46875 0
0.1875 0.5 0
0.15625 0.4375 0
0.1875 0.4375 0
0.21875 0.46875 0
0.21875 0.5 0
0.25 0.46875 0
0.25 0.5 0
0.21875 0.4375 0
0.25 0.4375 0
0.15625 0.40625 0
0.1875 0.40625 0
0.15625 0.375 0
0.1875 0.375 0
0.21875 0.40625 0
0.25 0.40625 0
0.21875 0.375 0
0.25 0.375 0
0.03125 0.34375 0
0.0625 0.34375 0
0.03125 0.3125 0
0.0625 0.3125 0
0.09375 0.34375 0
0.125 0.34375 0
0.09375 0.3125 0
0.125 0.3125 0
0.03125 0.28125 0
0.0625 0.28125 0
0.03125 0.25 0
0.0625 0.25 0
0.09375 0.28125 0
0.125 0.28125 0
0.09375 0.25 0
0.125 0.25 0
0.15625 0.34375 0
0.1875 0.34375 0
0.15625 0.3125 0
0.1875 0.3125 0
0.21875 0.34375 0
0.25 0.34375 0
0.21875 0.3125 0
0.25 0.3125 0
0.15625 0.28125 0
0.1875 0.28125 0
0.15625 0.25 0
0.1875 0.25 0
0.21875 0.28125 0
0.25 0.28125 0
0.21875 0.25 0
0.25 0.25 0
0.28125 0.46875 0
0.28125 0.5 0
0.3125 0.46875 0
0.3125 0.5 0
0.28125 0.4375 0
0.3125 0.4375 0
0.34375 0.46875 0
0.34375 0.5 0
0.375 0.46875 0
0.375 0.5 0
0.34375 0.4375 0
0.375 0.4375 0
0.28125 0.40625 0
0.3125 0.40625 0
0.28125 0.375 0
0.3125 0.375 0
0.34375 0.40625 0
0.375 0.40625 0
0.34375 0.375 0
0.375 0.375 0
0.40625 0.46875 0
0.40625 0.5 0
0.4375 0.46875 0
0.4375 0.5 0
0.40625 0.4375 0
0.4375 0.4375 0
0.46875 0.46875 0
0.46875 0.5 0
0.5 0.46875 0
0.5 0.5 0
0.46875 0.4375 0
0.5 0.4375 0
0.40625 0.40625 0
0.4375 0.40625 0
0.40625 0.375 0
0.4375 0.375 0
0.46875 0.40625 0
0.5 0.40625 0
0.46875 0.375 0
0.5 0.375 0
0.28125 0.34375 0
0.3125 0.34375 0
0.28125 0.3125 0
0.3125 0.3125 0
0.34375 0.34375 0
0.375 0.34375 0
0.34375 0.3125 0
0.375 0.3125 0
0.28125 0.28125 0
0.3125 0.28125 0
0.28125 0.25 0
0.3125 0.25 0
0.34375 0.28125 0
0.375 0.28125 0
0.34375 0.25 0
0.375 0.25 0
0.40625 0.34375 0
0.4375 0.34375 0
0.40625 0.3125 0
0.4375 0.3125 0
0.46875 0.34375 0
0.5 0.34375 0
0.46875 0.3125 0
0.5 0.3125 0
0.40625 0.28125 0
0.4375 0.28125 0
0.40625 0.25 0
0.4375 0.25 0
0.46875 0.28125 0
0.5 0.28125 0
0.46875 0.25 0
0.5 0.25 0
0.03125 0.21875 0
0.0625 0.21875 0
0.03125 0.1875 0
0.0625 0.1875 0
0.09375 0.21875 0
0.125 0.21875 0
0.09375 0.1875 0
0.125 0.1875 0
0.03125 0.15625 0
0.0625 0.15625 0
0.03125 0.125 0
0.0625 0.125 0
0.09375 0.15625 0
0.125 0.15625 0
0.09375 0.125 0
0.125 0.125 0
0.15625 0.21875 0
0.1875 0.21875 0
0.15625 0.1875 0
0.1875 0.1875 0
0.21875 0.21875 0
0.25 0.21875 0
0.21875 0.1875 0
0.25 0.1875 0
0.15625 0.15625 0
0.1875 0.15625 0
0.15625 0.125 0
0.1875 0.125 0
0.21875 0.15625 0
0.25 0.15625 0
0.21875 0.125 0
0.25 0.125 0
0.03125 0.09375 0
0.0625 0.09375 0
0.03125 0.0625 0
0.0625 0.0625 0
0.09375 0.09375 0
0.125 0.09375 0
0.09375 0.0625 0
0.125 0.0625 0
0.03125 0.03125 0
0.0625 0.03125 0
0.03125 0 0
0.0625 0 0
0.09375 0.03125 0
0.125 0.03125 0
0.09375 0 0
0.125 0 0
0.15625 0.09375 0
0.1875 0.09375 0
0.15625 0.0625 0
0.1875 0.0625 0
0.21875 0.09375 0
0.25 0.09375 0
0.21875 0.0625 0
0.25 0.0625 0
0.15625 0.03125 0
0.1875 0.03125 0
0.15625 0 0
0.1875 0 0
0.21875 0.03125 0
0.25 0.03125 0
0.21875 0 0
0.25 0 0
0.28125 0.21875 0
0.3125 0.21875 0
0.28125 0.1875 0
0.3125 0.1875 0
0.34375 0.21875 0
0.375 0.21875 0
0.34375 0.1875 0
0.375 0.1875 0
0.28125 0.15625 0
0.3125 0.15625 0
0.28125 0.125 0
0.3125 0.125 0
0.34375 0.15625 0
0.375 0.15625 0
0.34375 0.125 0
0.375 0.125 0
0.40625 0.21875 0
0.4375 0.21875 0
0.40625 0.1875 0
0.4375 0.1875 0
0.46875 0.21875 0
0.5 0.21875 0
0.46875 0.1875 0
0.5 0.1875 0
0.40625 0.15625 0
0.4375 0.15625 0
0.40625 0.125 0
0.4375 0.125 0
0.46875 0.15625 0
0.5 0.15625 0
0.46875 0.125 0
0.5 0.125 0
0.28125 0.09375 0
0.3125 0.09375 0
0.28125 0.0625 0
0.3125 0.0625 0
0.34375 0.09375 0
0.375 0.09375 0
0.34375 0.0625 0
0.375 0.0625 0
0.28125 0.03125 0
0.3125 0.03125 0
0.28125 0 0
0.3125 0 0
0.34375 0.03125 0
0.375 0.03125 0
0.34375 0 0
0.375 0 0
0.40625 0.09375 0
0.4375 0.09375 0
0.40625 0.0625 0
0.4375 0.0625 0
0.46875 0.09375 0
0.5 0.09375 0
0.46875 0.0625 0
0.5 0.0625 0
0.40625 0.03125 0
0.4375 0.03125 0
0.40625 0 0
0.4375 0 0
0.46875 0.03125 0
0.5 0.03125 0
0.46875 0 0
0.5 0 0
-0.5 -0.03125 0
-0.46875 -0.03125 0
-0.4375 -0.03125 0
-0.5 -0.0625 0
-0.46875 -0.0625 0
-0.4375 -0.0625 0
-0.40625 -0.03125 0
-0.375 -0.03125 0
-0.40625 -0.0625 0
-0.375 -0.0625 0
-0.5 -0.09375 0
-0.46875 -0.09375 0
-0.4375 -0.09375 0
-0.5 -0.125 0
-0.46875 -0.125 0
-0.4375 -0.125 0
-0.40625 -0.09375 0
-0.375 -0.09375 0
-0.40625 -0.125 0
-0.375 -0.125 0
-0.34375 -0.03125 0
-0.3125 -0.03125 0
-0.34375 -0.0625 0
-0.3125 -0.0625 0
-0.28125 -0.03125 0
-0.25 -0.03125 0
-0.28125 -0.0625 0
-0.25 -0.0625 0
-0.34375 -0.09375 0
-0.3125 -0.09375 0
-0.34375 -0.125 0
-0.3125 -0.125 0
-0.28125 -0.09375 0
-0.25 -0.09375 0
-0.28125 -0.125 0
-0.25 -0.125 0
-0.5 -0.15625 0
-0.46875 -0.15625 0
-0.4375 -0.15625 0
-0.5 -0.1875 0
-0.46875 -0.1875 0
-0.4375 -0.1875 0
-0.40625 -0.15625 0
-0.375 -0.15625 0
[...]
POINT_DATA 1089
SCALARS T float
LOOKUP_TABLE default
0
0
0
0
0
0
0
0
0
0
0
0
0
0
0
0
0
0
0
0
0
0
0
0
0
0
0
0
0
0
0
0
0
0
0
0
0
0
0
0
0
0
0
0
0
0
0
0
0
0
0
0
0
0
0
0
0
0
0
0
0
0
0
0
0
0
0
0
0
0
0
0
0
0
0
0
0
0
0
0
0
0
0
0
0
0
0
0
0
0
0
0
0
0
0
0
0
0
0
0
0
0
0
0
0
0
0
0
0
0
0
0
0
0
0
0
0
0
0
0
0
0
0
0
0
0
0
0
0
0
0
0
0
0
0
0
0
0
0
0
0
0
0
0
0
0
0
0
0
0
0
0
0
0
0
0
0
0
0
0
0
0
0
0
0
0
0
0
0
0
0
0
0
0
0
0
0
0
0
0
0
0
0
0
0
0
0
0
0
0
0
0
0
0
0
0
0
0
0
0
0
0
0
0
0
0
0
0
0
0
0
0
0
0
0
0
0.00206346
0
0
0
0
0.00428328
0.172912
0.114327
0.530892
0
0
0
0
0
0
0
0
0
0
0
0
0
0
0
0
0
0
0
0
0
0
0
0
0
0
0
0
0
0
0
0
0
0.00306438
0.111296
0.341227
0.0582003
0.143134
0.537131
0.643134
0.527861
0.838163
0.916565
1
0.978931
1
1
1
0.171042
0.123567
0.671041
0.623566
0.0410966
0.000573369
0.496545
0.27712
1
0.999999
1
1
0.955449
0.774473
1
0.997926
0
0
0
0
0
0
0
0
0
0
0
0
0
0
0
0
0
0
0
0
0
0
0
0
0
0
0
0
0
0
0
0
0
0
0
0
0
0
0
0
0
0
0
0
0
0
0
0
0
0
0
0
0
0
0
0
0
0.0445745
0.0516485
0.339481
0.189873
0.297778
0.683131
0.797778
0.213636
0.706894
0.339663
0.839663
0.993258
1
1
1
0
0
0
0
0
0
0
0
0
0
0
0
0
0
0
0
0
0
0
0
0
0
0
0
0
0
0
0
0
0
0
0
0
0
0
0
0
0
0
0
0.217849
0.0653698
0.715045
0.397251
0
0
0.0846852
0
0.997196
0.780681
1
0.91222
0.283485
0
0.41222
0
0
0
0
0
0
0
0
0
0
0
0
0
0
0
0
0
0
0
0
0
0
0
0
0
0
0
0
0
0
0
0
0
0.277207
0.777207
0.101998
0.47686
1
1
0.856619
0.967307
0.00246621
0.127329
0
0
0.356682
0.469079
6.23432e-05
0.00177185
0
0
0.0710966
0
0
0
0
0
0.423178
0.104155
0.847132
0.389792
0
0
0.0405866
0
0
0
0
0
0
0
0
0
0
0
0
0
0
0
0
0.0107474
1
0.846354
0.88084
0.536064
0.346354
0
0.140773
0
0.38255
0.153129
0.00170951
0
0.00783896
0
0
0
0
0
0
0
0
0
0
0
0
0
0
0
0
0
0
0
0
0
0
0
0
0
0
0
0
0
0.104817
0.179885
0
0
0.0913483
0.00553292
0
0
0
0
0
0
0
0
0
0
0
0
0
0
0
0
0
0
0
0
0
0
0
0
0
0
0
0
0
0
0
0
0
0
0
0
0
5.74508e-05
0
0.00711748
0.325443
0.825385
0.472459
0.965341
0
0.00885698
0
0.00179696
0.497685
0.988828
0.404986
0.903189
0
0
0
0
0
0
0
0
0
0
0
0
0
0
0
0
0
0
0
0
0
0
0
0
0.197348
0.680804
0.0329867
0.312715
0
0
0
0
0
0.0462718
0
0
1
1
1
1
1
1
1
1
1
1
1
1
1
1
1
1
1
1
1
1
1
1
1
1
1
1
1
1
1
1
1
1
0.983457
1
0.746323
0.966595
1
1
1
1
0.27029
0.57121
0.00742281
0.104615
0.768795
0.877252
0.268795
0.377252
1
1
1
1
1
1
1
0.942713
0.908426
0.865315
0.408426
0.365315
0.742896
0.525655
0.242896
0.0829427
0
0
0
0
0
0
0
0
0
0
0
0
0
0
0
0
0
0
0
0
0
0
0
0
0
0
0
0
0
0
0
0
0
0
0
0
0
0
0
0
0
0
0
0
0
0
0
0
0
0
0
0
0
0
0
0
0
0
0
0
0
0
0
0
0
0
0
0
0
0
0
0
0
0
0
0
0
0
0
0
0
0
0
0
0
0
0
0
0
0
0
0
0
0
0
0
0
0
0
0
0
0
0
0
0
0
0
0
0
0
0
0
0
0
0
0
0
0
0
0
0
0
0
0
0
0
0
0
0
0
0
0
0
0
0
0
0.99505
0.675821
1
0.823138
0.180771
0
0.323138
0
1
0.85301
1
0.769595
0.353009
0
0.269595
0
0
0
0
0
0.000435393
0.191724
0.00149817
0.43204
0
0
0
0
0.00106277
0.433529
0
0.19727
0.952699
0.559639
0.672495
0.237185
0.10694
0
0.00740179
0
0.222382
0.0270838
0.00258569
0
0
0
0
0
0
0
0
0
0
0.0148037
0
0
0
0
0
0
0
0
0
0
0.535359
0.679885
0.930542
1
0.489244
0.153429
0.866364
0.366364
0.932467
1
0.545096
0.686972
0.866524
0.366524
0.491291
0.152145
0
0
0
0
0
0
0
0
0
0
0
0
0
0
0
0
0.112629
0.186972
0
0
0.093236
0.00408963
0
0
0
0
0
0
0
0
0
0
0
0
0
0
0
0
0
0
0
0
0
0
0
0
0
0
0
0
0
0
0
0
0
0
0
0
0
0
0
0
0
0
0
0
0
0
0
0
0
0
0
0
0
0
0
0
0
0
0
0
0
0
0
0
0
0
0
0
0
0
0
0
0
0
0
0
0
0
0
0
0
0
0
0
0
0
0
0
0
0
0
0
0
0
0
0
0
0
0
0
0
0
0
0
0
0
0
0
0
0
0
0
0
0
0
0
0
0
0
0
0
0
0
0
0
0
0
0
0
0
0
0
0
0
0
0
0
0
0
0
0
0
0
0
0
0
0
0
0
0
0
0
0
0

SCALARS P float
LOOKUP_TABLE default
-0.0114157
-0.0113413
-0.0114338
-0.01136
-0.0112521
-0.0112706
-0.0114095
-0.0113343
-0.0112451
-0.011149
-0.0111656
-0.0110331
-0.0110459
-0.011143
-0.0110293
-0.011414
-0.0113379
-0.0112483
-0.0114282
-0.0113514
-0.0112612
-0.0111462
-0.0110329
-0.0111581
-0.0110432
-0.0109065
-0.0109126
-0.0107721
-0.0107688
-0.0109063
-0.0107771
-0.0106344
-0.0106186
-0.0104995
-0.0104687
-0.0106462
-0.0105192
-0.0109105
-0.0107822
-0.0109184
-0.0107869
-0.0106525
-0.0105271
-0.010653
-0.0105228
-0.01145
-0.0113741
-0.0112838
-0.011482
-0.0114079
-0.0113177
-0.0111791
-0.0110609
-0.0112109
-0.011088
-0.011522
-0.0114529
-0.0113646
-0.0115769
-0.0115142
-0.0114288
-0.0112561
-0.0111276
-0.0113192
-0.0111849
-0.0109307
-0.0107918
-0.0109496
-0.010799
-0.0106482
-0.0105067
-0.0106396
-0.0104794
-0.0109785
-0.0108118
-0.0110232
-0.0108365
-0.0106299
-0.0104424
-0.0106243
-0.0103989
-0.0103748
-0.0103276
-0.0102688
-0.0102057
-0.0104031
-0.0103052
-0.0101899
-0.0101137
-0.0101453
-0.0100611
-0.0102328
-0.010192
-0.0104125
-0.0103161
-0.0104031
-0.0103017
-0.0102448
-0.0102043
-0.0102263
-0.0101827
-0.0101394
-0.0100538
-0.0101732
-0.0100932
-0.0101865
-0.010217
-0.010244
-0.0101757
-0.0103457
-0.0102931
-0.0102813
-0.0103743
-0.0101982
-0.0102271
-0.0101751
-0.0102039
-0.0102889
-0.0103789
-0.010267
-0.0103592
-0.0103746
-0.0102614
-0.0103264
-0.010193
-0.010176
-0.0101258
-0.0100907
-0.0100292
-0.0102579
-0.0100935
-0.0101685
-0.00995812
-0.00996538
-0.00988661
-0.00979121
-0.00968645
-0.0101157
-0.0101465
-0.0100152
-0.0100499
-0.0102154
-0.010316
-0.0101296
-0.0102451
-0.00986732
-0.00990891
-0.00965951
-0.00971309
-0.0100066
-0.0101451
-0.00984049
-0.0100183
-0.0116501
-0.0115948
-0.0115139
-0.0117479
-0.0116998
-0.0116257
-0.011405
-0.011266
-0.0115208
-0.0113807
-0.0118699
-0.0118301
-0.0117667
-0.0120072
-0.0119827
-0.0119393
-0.0116716
-0.0115372
-0.0118655
-0.0117513
-0.0110907
-0.0108805
-0.0111938
-0.0109593
-0.0106295
-0.0103535
-0.010661
-0.010319
-0.0113437
-0.0110875
-0.0115662
-0.0113028
-0.0107335
-0.0103078
-0.0108941
-0.0103687
-0.012158
-0.0121557
-0.0121421
-0.0123096
-0.0123408
-0.0123727
-0.0121037
-0.0120278
-0.0123928
-0.0123894
-0.0124544
-0.0125272
-0.0126167
-0.0125844
-0.0127029
-0.0128598
-0.012715
-0.0128152
-0.0130606
-0.0133103
-0.0118725
-0.0116257
-0.0123123
-0.0121422
-0.0111732
-0.0105406
-0.0117048
-0.0108596
-0.0128655
-0.0128423
-0.0135956
-0.0139261
-0.0122549
-0.0012353
-0.0062077
0.0207251
-0.0100579
-0.00978067
-0.00992865
-0.00955127
-0.00955749
-0.00941453
-0.00924346
-0.0090416
-0.00978216
-0.00925877
-0.00963594
-0.00888115
-0.0088303
-0.00854463
-0.0082647
-0.00783946
-0.00937633
-0.00944815
-0.00898635
-0.00908685
-0.00962091
-0.00986069
-0.00933095
-0.00966776
-0.00846299
-0.00860357
-0.00771625
-0.00792094
-0.00895547
-0.00943267
-0.00844236
-0.00915074
-0.00949926
-0.00823778
-0.00357329
0.00987175
-0.0047278
-5.8311e-05
0.0202744
0.0256319
0.0201192
0.0371217
0.0438131
0.0473999
0.0439989
0.044686
0.0465324
0.0459898
0.00140027
-0.00115845
0.0269581
0.0245611
-0.00580823
-0.00877477
0.0180005
0.00584536
0.0445452
0.0446886
0.0458177
0.0460142
0.0427497
0.0334613
0.0465939
0.0474117
-0.0104704
-0.0104351
-0.0106099
-0.0105908
-0.0104893
-0.0106198
-0.0107555
-0.0107506
-0.010902
-0.010907
-0.010757
-0.0108985
-0.0104904
-0.0106181
-0.0104725
-0.0106032
-0.0107514
-0.0108921
-0.0107376
-0.0108845
-0.0110447
-0.0110554
-0.0111743
-0.0111883
-0.0110401
-0.011168
-0.0113028
-0.0113103
-0.0114134
-0.0114127
-0.0113058
-0.0114304
-0.0110324
-0.0111542
-0.01103
-0.0111502
-0.0113229
-0.0114885
-0.0113454
-0.0115529
-0.0104388
-0.0105791
-0.0103854
-0.0105427
-0.0107168
-0.0108697
-0.0107011
-0.0108924
-0.0103119
-0.0104843
-0.0102295
-0.0104298
-0.0106541
-0.0108127
-0.01061
-0.0107059
-0.0109868
-0.00591756
-0.00483834
0.0293359
0.0109293
0.023361
0.0699338
0.0832465
0.0145912
0.0732154
0.0298583
0.0889533
0.107157
0.107927
0.107563
0.107589
-0.0114902
-0.0114876
-0.0115403
-0.0115387
-0.0115144
-0.011564
-0.0115623
-0.011565
-0.0115648
-0.0115717
-0.0115779
-0.0115729
-0.0115785
-0.0116139
-0.0116787
-0.0117072
-0.0116086
-0.0115924
-0.0116642
-0.0116292
-0.0115499
-0.0115605
-0.0115199
-0.0115336
-0.0115521
-0.011518
-0.0114749
-0.0114911
-0.0114157
-0.0114333
-0.0114702
-0.0114095
-0.0115647
-0.0115264
-0.0115894
-0.0115448
-0.011476
-0.011414
-0.0114915
-0.0114282
0.01346
-0.00441968
0.0730597
0.0347851
-0.0116974
-0.011652
-0.00215589
-0.0116943
0.107555
0.0804869
0.107527
0.0960602
0.02106
-0.0116452
0.0365261
-0.0115898
-0.011607
-0.0115632
-0.011637
-0.0115909
-0.0115118
-0.01145
-0.0115418
-0.011482
-0.0116332
-0.0116075
-0.0116358
-0.0116351
-0.0115733
-0.011522
-0.0116179
-0.0115769
-0.0101413
-0.0104074
-0.0100537
-0.0104117
-0.010646
-0.0108137
-0.0107194
-0.010958
-0.00997359
-0.0104573
-0.0099344
-0.0105797
-0.0108522
-0.0111504
-0.011065
-0.0114167
0.0225416
0.0816131
0.00140481
0.0460562
0.107428
0.10747
0.0910085
0.103963
-0.0110509
0.0039393
-0.0117158
-0.0119055
0.031271
0.0444042
-0.0121677
-0.0120688
-0.00993154
-0.0108046
-0.00639803
-0.0113191
-0.0113718
-0.0117283
-0.0118835
-0.0121786
0.0134357
-0.00602274
0.0392986
0.0109555
-0.0126942
-0.0127863
-0.0112262
-0.0135042
-0.01198
-0.0121282
-0.0123448
-0.0124256
-0.0123206
-0.0124505
-0.0125004
-0.0125625
-0.012775
-0.0127301
-0.0132554
-0.0130605
-0.012696
-0.0127258
-0.0129239
-0.0109937
0.107255
0.08824
0.0931878
0.0517362
0.028903
-0.0115848
0.00482538
-0.0116544
0.0338493
0.00638993
-0.0119483
-0.0121023
-0.0108926
-0.0118539
-0.0120386
-0.0120234
-0.0116623
-0.0116851
-0.0117359
-0.0117699
-0.011681
-0.0116501
-0.0117716
-0.0117479
-0.0118826
-0.0118951
-0.0120235
-0.0120223
-0.0118906
-0.0118699
-0.012019
-0.0120072
-0.0123692
-0.012285
-0.0125278
-0.0124565
-0.0122079
-0.0121692
-0.0123359
-0.0122794
-0.0127356
-0.0126746
0.00593194
0.0192026
-0.0124909
-0.0123932
0.00339917
-0.0115815
-0.0121646
-0.0121532
-0.0122843
-0.0122673
-0.0121566
-0.012158
-0.0122868
-0.0123096
-0.012393
-0.0123647
-0.0124734
-0.0124443
-0.0124051
-0.0124544
-0.0125069
-0.0125844
-0.0126706
-0.0128372
-0.0130617
-0.0127252
-0.0129172
-0.0131834
-0.0133672
-0.0137763
-0.0135565
-0.0140672
-0.0126989
-0.0129115
-0.013195
-0.012634
-0.012837
-0.0130981
-0.0135891
-0.0141244
-0.0134518
-0.0139203
-0.0143417
-0.0151023
-0.0148194
-0.0151505
0.00708033
0.0403617
0.0170916
0.0503963
-0.0149269
-0.0151282
-0.0145989
-0.0153123
0.01892
0.0521983
0.0126395
0.0461402
-0.0125559
-0.0127124
-0.0129144
-0.0124294
-0.0125403
-0.0126754
-0.0131761
-0.0135056
-0.0128336
-0.0130097
-0.0122938
-0.0123559
-0.0124259
-0.0121465
-0.0121681
-0.0121841
-0.0124948
-0.0125473
-0.0121824
-0.0121445
-0.0139207
-0.0144484
-0.0131691
-0.0133133
-0.000912237
0.0307915
-0.010935
0.00738877
-0.0125433
-0.0124483
-0.0120351
-0.0118141
-0.0121001
-0.00842672
-0.0113899
-0.0106616
0.0500735
0.0485307
0.0506743
0.0491408
0.0475304
0.0469427
0.0480939
0.0474774
0.0508178
0.0492765
0.0504669
0.0489172
0.0482135
0.0475889
0.0478698
0.0472575
0.0467556
0.0469468
0.0472801
0.0474832
0.0475427
0.0485245
0.0480934
0.0490996
0.0473937
0.0476087
0.0470777
0.0473098
0.04824
0.0492806
0.0479678
0.0490263
0.0486813
0.0480959
0.0335487
0.0450164
0.0470745
0.046477
0.0458189
0.0452804
0.00561994
0.0227392
-0.00908501
-0.00265844
0.0327823
0.0378817
0.00659489
0.0122636
0.0463235
0.0465826
0.0451591
0.0454532
0.0472993
0.0484055
0.04619
0.0439666
0.0392851
0.0373398
0.0137948
0.0114975
0.0314379
0.0198777
0.00478939
-0.0045466
-0.0120052
-0.0119941
-0.0119694
-0.0118724
-0.011838
-0.0117852
-0.011919
-0.011826
-0.0117037
-0.0115801
-0.0117559
-0.0117052
-0.0116342
-0.011656
-0.0115951
-0.0115136
-0.011535
-0.011398
-0.0114062
-0.0112665
-0.0116642
-0.0114024
-0.0113965
-0.0111318
-0.0109922
-0.0103842
-0.0107635
-0.0102723
-0.0112118
-0.0109643
-0.011088
-0.0108648
-0.0106462
-0.0102533
-0.0105951
-0.0102817
-0.0115749
-0.0115077
-0.0114208
-0.0115113
-0.0114408
-0.0113517
-0.0113108
-0.011174
-0.0112424
-0.0111112
-0.0114649
-0.0113924
-0.0113028
-0.0114333
-0.01136
-0.0112706
-0.0111955
-0.0110704
-0.0111656
-0.0110459
-0.0110073
-0.0108088
-0.0109572
-0.0107811
-0.0105804
-0.010328
-0.0105863
-0.0103797
-0.0109279
-0.01077
-0.0109126
-0.0107688
-0.0106011
-0.0104279
-0.0106186
-0.0104687
-0.00955873
-0.00859211
-0.00967261
-0.00901783
-0.00771818
-0.00715203
-0.00843252
-0.00805069
-0.00980478
-0.00934513
-0.00994367
-0.00961247
-0.0089524
-0.00870615
-0.00933632
-0.0091658
-0.00701622
-0.00736077
-0.00795841
-0.00819697
-0.00813388
-0.00910213
-0.00871785
-0.00937421
-0.00865171
-0.00880871
-0.00913044
-0.00924302
-0.0091498
-0.0096006
-0.00948347
-0.00980572
-0.0100675
-0.00982275
-0.0101743
-0.00998745
-0.00962526
-0.00950641
-0.00984025
-0.00975322
-0.0102608
-0.0101132
-0.0103276
-0.0102057
-0.00999973
-0.00993391
-0.0101137
-0.0100611
-0.00948399
-0.00956498
-0.00973833
-0.00979979
-0.00973693
-0.00997286
-0.00992916
-0.0101089
-0.0099238
-0.00997184
-0.0100538
-0.0100932
-0.0100726
-0.0102145
-0.0101757
-0.0102931
0.0496009
0.0293931
0.0505208
0.0395854
-0.00293901
-0.0142662
0.00626733
-0.0148357
0.0507044
0.0417821
0.050514
0.0360494
0.00826608
-0.0150371
0.00276522
-0.014774
-0.013724
-0.0133258
-0.014029
-0.0133963
-0.0129259
0.0219206
-0.0121877
0.0659054
-0.0141917
-0.0135832
-0.014071
-0.0136185
-0.0125356
0.0665627
-0.013305
0.0235303
0.0468471
0.0220142
0.0287301
0.00179877
-0.00750909
-0.0141141
-0.013011
-0.0133222
0.00201667
-0.0103344
-0.0100502
-0.0111702
-0.0124262
-0.012582
-0.0117244
-0.0120232
-0.013656
-0.0133334
-0.0131467
-0.0129898
-0.0130918
-0.0101564
-0.0128706
-0.0128386
-0.0126187
-0.0125941
-0.0121835
-0.0122554
-0.0125627
-0.0125415
-0.0122931
-0.0123015
0.0840795
0.10971
0.155638
0.168127
0.0745679
0.0144196
0.142707
0.0524559
0.156509
0.168117
0.0871279
0.112172
0.143075
0.0529762
0.0760462
0.0148791
-0.0124613
-0.0124671
-0.0124802
-0.0125229
-0.0125547
-0.0126706
-0.0125878
-0.0127252
-0.0122407
-0.0124066
-0.0121398
-0.0123183
-0.0125269
-0.0126989
-0.0124655
-0.012634
0.00806111
0.0217597
-0.0127768
-0.0125579
0.00461341
-0.0115366
-0.0123677
-0.0122652
-0.0125051
-0.0123882
-0.0122851
-0.0122225
-0.0122805
-0.0122276
-0.012163
-0.0121352
-0.0122769
-0.0123516
-0.0122316
-0.012279
-0.0124351
-0.0125559
-0.0123406
-0.0124294
-0.0121959
-0.0122139
-0.0121108
-0.0121155
-0.0122441
-0.0122938
-0.0121266
-0.0121465
-0.0100353
-0.010792
-0.0100282
-0.0105982
-0.0112971
-0.0116229
-0.0110333
-0.0113486
-0.0100764
-0.0105153
-0.0101572
-0.0104968
-0.0108795
-0.0111652
-0.0107977
-0.0110495
-0.0118334
-0.0119586
-0.0115751
-0.0117286
-0.0120391
-0.0120798
-0.0118353
-0.0119
-0.0113855
-0.0115476
-0.0112549
-0.0114157
-0.0116672
-0.0117484
-0.01154
-0.0116302
-0.0102396
-0.0105079
-0.0103175
-0.0105344
-0.0107578
-0.0109778
-0.0107446
-0.0109376
-0.0103831
-0.0105636
-0.0104351
-0.0105908
-0.0107443
-0.010916
-0.0107506
-0.010907
-0.0111657
-0.0113199
-0.0111091
-0.0112552
-0.0114442
-0.0115392
-0.0113776
-0.0114746
-0.0110741
-0.0112129
-0.0110554
-0.0111883
-0.0113341
-0.011433
-0.0113103
-0.0114127
-0.0120961
-0.0120798
-0.0119362
-0.0119451
-0.0120536
-0.01204
-0.0119404
-0.0119363
-0.0118015
-0.0118295
-0.0116929
-0.0117316
-0.01184
-0.0118424
-0.011751
-0.0117575
-0.0120218
-0.012016
-0.0119236
-0.0119121
-0.0120104
-0.0120052
-0.0118953
-0.0118724
-0.0118329
-0.0118171
-0.0117499
-0.0117314
-0.0117919
-0.0117559
-0.0117004
-0.011656
-0.011608
-0.0116535
-0.0115464
-0.0115954
-0.0116786
-0.0116876
-0.0116229
-0.0116327
-0.0115066
-0.0115574
-0.0114876
-0.0115387
-0.0115854
-0.0115944
-0.011565
-0.0115717
-0.0116806
-0.01166
-0.0116254
-0.0116028
-0.0116249
-0.0115749
-0.0115649
-0.0115113
-0.0115857
-0.0115611
-0.0115605
-0.0115336
-0.0115207
-0.0114649
-0.0114911
-0.0114338

SCALARS U float
LOOKUP_TABLE default
0.0206716
0.0208732
0.020373
0.0206029
0.0210732
0.0208384
0.0209855
0.0211432
0.0213018
0.0212661
0.0210662
0.0214441
0.0212786
0.0214564
0.0215986
0.0212801
0.0213943
0.0215133
0.0215208
0.0216021
0.02169
0.0216322
0.0217424
0.0217807
0.0218666
0.0215954
0.0214642
0.0217044
0.021608
0.0217163
0.0217938
0.0217532
0.0216913
0.0217234
0.0216942
0.0218127
0.0217549
0.0218321
0.0218846
0.0219363
0.0219725
0.0218808
0.0218016
0.0219553
0.0218629
0.0216728
0.0217406
0.021811
0.0217244
0.0217979
0.0218612
0.0218833
0.021953
0.0219212
0.0219793
0.0217086
0.0217852
0.0218371
0.0216559
0.0217154
0.0217372
0.0218796
0.0219216
0.0217462
0.0217587
0.022011
0.0220402
0.0220305
0.0220595
0.0220196
0.0219245
0.0220456
0.0219604
0.0219646
0.0219965
0.0217862
0.021823
0.0219999
0.0219421
0.0218608
0.0218589
0.0216003
0.0215992
0.0213783
0.0213991
0.0216065
0.021362
0.0210652
0.0211025
0.0206822
0.0207336
0.021028
0.0206241
0.0216317
0.0213647
0.0216776
0.0213909
0.021006
0.0205746
0.0210066
0.0205444
0.0202611
0.0203282
0.0198392
0.0199269
0.0201804
0.0197335
0.0194517
0.0195658
0.0191278
0.0192714
0.0193195
0.0189704
0.0201013
0.0196252
0.0200385
0.0195334
0.0191849
0.0188151
0.0190733
0.0186957
0.0217331
0.0214338
0.0217767
0.0214781
0.0210276
0.020536
0.02106
0.0205449
0.0217873
0.0215116
0.0217654
0.0215436
0.0210977
0.0205668
0.021151
0.0206038
0.0199984
0.0194684
0.0199797
0.0194299
0.0189995
0.0186363
0.0189651
0.0186453
0.0199736
0.0194004
0.0199666
0.0193398
0.0189405
0.0186814
0.0188497
0.018618
0.0216
0.0216027
0.0215631
0.0215104
0.0214291
0.0213062
0.0215141
0.0214785
0.0211818
0.0210878
0.0213339
0.0211675
0.0209592
0.0210305
0.0208041
0.0205325
0.0207593
0.020613
0.0202783
0.0201009
0.0214839
0.0215364
0.0210789
0.0211785
0.0216446
0.0217465
0.0214166
0.0216674
0.0206153
0.0208039
0.0201389
0.0204037
0.021214
0.0215583
0.0208705
0.0209286
0.0205784
0.0203403
0.0200433
0.02006
0.0198412
0.0195512
0.0197606
0.0195545
0.0192599
0.0189976
0.0195506
0.0193581
0.0190888
0.0191373
0.0189696
0.0187427
0.0187783
0.0183789
0.0184453
0.017977
0.0195783
0.0197233
0.0188611
0.018504
0.0198446
0.0190526
0.0177172
0.0166537
0.0178595
0.0166264
0.0172366
0.0158092
0.0145953
0.0146678
0.0141363
0.015328
0.0217569
0.0216202
0.0217844
0.0217195
0.0212545
0.020676
0.0213601
0.0207513
0.0216245
0.021514
0.0204225
0.020044
0.021146
0.0206409
0.0198134
0.0198824
0.0199613
0.0192223
0.0199759
0.0191052
0.0186254
0.0183342
0.0183332
0.0178923
0.0200431
0.0192309
0.0201503
0.0200076
0.0183382
0.0177102
0.0194121
0.0187535
0.0175443
0.0171807
0.0159467
0.0169006
0.0177248
0.0186519
0.0183787
0.0188576
0.0173273
0.0194934
0.0185627
0.0195566
0.020151
0.019529
0.0190504
0.0188417
0.0198504
0.0206203
0.0188571
0.0189843
0.0210518
0.021182
0.0197837
0.0211825
0.0183692
0.0176952
0.0188923
0.0191575
0.017693
0.0186851
0.0191256
0.0187296
0.0188835
0.0190538
0.0187277
0.0189144
0.0187054
0.0185354
0.0186573
0.0188421
0.0186706
0.0188268
0.0184632
0.0184932
0.0185351
0.0183518
0.0184199
0.018241
0.0182692
0.0182846
0.0181584
0.0181367
0.018755
0.0188516
0.0189304
0.0189154
0.0186266
0.0189509
0.0191089
0.0189811
0.0191781
0.0190045
0.0192866
0.0193768
0.0184456
0.0190081
0.0183294
0.0190809
0.0195582
0.0195229
0.0196354
0.019387
0.0184004
0.0182683
0.018499
0.0185062
0.0182371
0.0181654
0.0186698
0.0188416
0.0186559
0.0188827
0.0186671
0.0190207
0.0193123
0.0200487
0.019562
0.0205094
0.0184187
0.0189814
0.0194978
0.0200316
0.0189934
0.0191206
0.0195551
0.0196748
0.0209337
0.0209442
0.0210646
0.0201457
0.020441
0.0204781
0.0196102
0.0201966
0.0192695
0.0190511
0.0194466
0.0191567
0.0194881
0.0197578
0.0196539
0.0193049
0.0198656
0.0194851
0.0200474
0.0202956
0.0195319
0.0199389
0.0193333
0.0198755
0.020393
0.0207152
0.0205477
0.0210153
0.0200699
0.0196859
0.0202715
0.0199034
0.0204952
0.0206689
0.0204705
0.0201307
0.0206716
0.0203581
0.0208279
0.0209855
0.0209119
0.021052
0.0212357
0.0213567
0.0211669
0.0212801
0.0214403
0.0215208
0.0195788
0.0198711
0.0199744
0.0197691
0.0205038
0.0211336
0.0203056
0.0210225
0.0206553
0.0207771
0.021207
0.022019
0.0209084
0.0210464
0.0215758
0.021037
0.021389
0.0215181
0.0213251
0.0215042
0.0216002
0.0216728
0.0216295
0.0217244
0.0212433
0.0214281
0.0211482
0.0213476
0.0215931
0.0217086
0.0215388
0.0216559
0.0183509
0.0186224
0.0177792
0.0178778
0.0190212
0.0195115
0.0180666
0.0180576
0.0173818
0.017299
0.0179955
0.0173748
0.0174795
0.0176415
0.0173971
0.017856
0.019512
0.0184969
0.017643
0.0170886
0.0181319
0.0192152
0.017398
0.0187581
0.0177799
0.0185903
0.0186741
0.0203613
0.0198626
0.0204214
0.0219846
0.0219882
0.0202748
0.0187393
0.0218934
0.0208142
0.0179329
0.0180365
0.0191508
0.0183618
0.0208404
0.0218512
0.0197354
0.0218423