# vtk DataFile Version 2.0
Gerris simulation version 1.3.2 (131206-155120)
ASCII
DATASET UNSTRUCTURED_GRID

POINTS 1089 float
-0.5 0.46875 0
-0.46875 0.46875 0
-0.5 0.5 0
-0.46875 0.5 0
-0.4375 0.46875 0
-0.4375 0.5 0
-0.5 0.4375 0
-0.46875 0.4375 0
-0.4375 0.4375 0
-0.40625 0.46875 0
-0.40625 0.5 0
-0.375 0.46875 0
-0.375 0.5 0
-0.40625 0.4375 0
-0.375 0.4375 0
-0.5 0.40625 0
-0.46875 0.40625 0
-0.4375 0.40625 0
-0.5 0.375 0
-0.46875 0.375 0
-0.4375 0.375 0
-0.40625 0.40625 0
-0.375 0.40625 0
-0.40625 0.375 0
-0.375 0.375 0
-0.34375 0.46875 0
-0.34375 0.5 0
-0.3125 0.46875 0
-0.3125 0.5 0
-0.34375 0.4375 0
-0.3125 0.4375 0
-0.28125 0.46875 0
-0.28125 0.5 0
-0.25 0.46875 0
-0.25 0.5 0
-0.28125 0.4375 0
-0.25 0.4375 0
-0.34375 0.40625 0
-0.3125 0.40625 0
-0.34375 0.375 0
-0.3125 0.375 0
-0.28125 0.40625 0
-0.25 0.40625 0
-0.28125 0.375 0
-0.25 0.375 0
-0.5 0.34375 0
-0.46875 0.34375 0
-0.4375 0.34375 0
-0.5 0.3125 0
-0.46875 0.3125 0
-0.4375 0.3125 0
-0.40625 0.34375 0
-0.375 0.34375 0
-0.40625 0.3125 0
-0.375 0.3125 0
-0.5 0.28125 0
-0.46875 0.28125 0
-0.4375 0.28125 0
-0.5 0.25 0
-0.46875 0.25 0
-0.4375 0.25 0
-0.40625 0.28125 0
-0.375 0.28125 0
-0.40625 0.25 0
-0.375 0.25 0
-0.34375 0.34375 0
-0.3125 0.34375 0
-0.34375 0.3125 0
-0.3125 0.3125 0
-0.28125 0.34375 0
-0.25 0.34375 0
-0.28125 0.3125 0
-0.25 0.3125 0
-0.34375 0.28125 0
-0.3125 0.28125 0
-0.34375 0.25 0
-0.3125 0.25 0
-0.28125 0.28125 0
-0.25 0.28125 0
-0.28125 0.25 0
-0.25 0.25 0
-0.21875 0.46875 0
-0.21875 0.5 0
-0.1875 0.46875 0
-0.1875 0.5 0
-0.21875 0.4375 0
-0.1875 0.4375 0
-0.15625 0.46875 0
-0.15625 0.5 0
-0.125 0.46875 0
-0.125 0.5 0
-0.15625 0.4375 0
-0.125 0.4375 0
-0.21875 0.40625 0
-0.1875 0.40625 0
-0.21875 0.375 0
-0.1875 0.375 0
-0.15625 0.40625 0
-0.125 0.40625 0
-0.15625 0.375 0
-0.125 0.375 0
-0.09375 0.46875 0
-0.09375 0.5 0
-0.0625 0.46875 0
-0.0625 0.5 0
-0.09375 0.4375 0
-0.0625 0.4375 0
-0.03125 0.46875 0
-0.03125 0.5 0
0 0.46875 0
0 0.5 0
-0.03125 0.4375 0
0 0.4375 0
-0.09375 0.40625 0
-0.0625 0.40625 0
-0.09375 0.375 0
-0.0625 0.375 0
-0.03125 0.40625 0
0 0.40625 0
-0.03125 0.375 0
0 0.375 0
-0.21875 0.34375 0
-0.1875 0.34375 0
-0.21875 0.3125 0
-0.1875 0.3125 0
-0.15625 0.34375 0
-0.125 0.34375 0
-0.15625 0.3125 0
-0.125 0.3125 0
-0.21875 0.28125 0
-0.1875 0.28125 0
-0.21875 0.25 0
-0.1875 0.25 0
-0.15625 0.28125 0
-0.125 0.28125 0
-0.15625 0.25 0
-0.125 0.25 0
-0.09375 0.34375 0
-0.0625 0.34375 0
-0.09375 0.3125 0
-0.0625 0.3125 0
-0.03125 0.34375 0
0 0.34375 0
-0.03125 0.3125 0
0 0.3125 0
-0.09375 0.28125 0
-0.0625 0.28125 0
-0.09375 0.25 0
-0.0625 0.25 0
-0.03125 0.28125 0
0 0.28125 0
-0.03125 0.25 0
0 0.25 0
-0.5 0.21875 0
-0.46875 0.21875 0
-0.4375 0.21875 0
-0.5 0.1875 0
-0.46875 0.1875 0
-0.4375 0.1875 0
-0.40625 0.21875 0
-0.375 0.21875 0
-0.40625 0.1875 0
-0.375 0.1875 0
-0.5 0.15625 0
-0.46875 0.15625 0
-0.4375 0.15625 0
-0.5 0.125 0
-0.46875 0.125 0
-0.4375 0.125 0
-0.40625 0.15625 0
-0.375 0.15625 0
-0.40625 0.125 0
-0.375 0.125 0
-0.34375 0.21875 0
-0.3125 0.21875 0
-0.34375 0.1875 0
-0.3125 0.1875 0
-0.28125 0.21875 0
-0.25 0.21875 0
-0.28125 0.1875 0
-0.25 0.1875 0
-0.34375 0.15625 0
-0.3125 0.15625 0
-0.34375 0.125 0
-0.3125 0.125 0
-0.28125 0.15625 0
-0.25 0.15625 0
-0.28125 0.125 0
-0.25 0.125 0
-0.5 0.09375 0
-0.46875 0.09375 0
-0.4375 0.09375 0
-0.5 0.0625 0
-0.46875 0.0625 0
-0.4375 0.0625 0
-0.40625 0.09375 0
-0.375 0.09375 0
-0.40625 0.0625 0
-0.375 0.0625 0
-0.5 0.03125 0
-0.46875 0.03125 0
-0.4375 0.03125 0
-0.5 0 0
-0.46875 0 0
-0.4375 0 0
-0.40625 0.03125 0
-0.375 0.03125 0
-0.40625 0 0
-0.375 0 0
-0.34375 0.09375 0
-0.3125 0.09375 0
-0.34375 0.0625 0
-0.3125 0.0625 0
-0.28125 0.09375 0
-0.25 0.09375 0
-0.28125 0.0625 0
-0.25 0.0625 0
-0.34375 0.03125 0
-0.3125 0.03125 0
-0.34375 0 0
-0.3125 0 0
-0.28125 0.03125 0
-0.25 0.03125 0
-0.28125 0 0
-0.25 0 0
-0.21875 0.21875 0
-0.1875 0.21875 0
-0.21875 0.1875 0
-0.1875 0.1875 0
-0.15625 0.21875 0
-0.125 0.21875 0
-0.15625 0.1875 0
-0.125 0.1875 0
-0.21875 0.15625 0
-0.1875 0.15625 0
-0.21875 0.125 0
-0.1875 0.125 0
-0.15625 0.15625 0
-0.125 0.15625 0
-0.15625 0.125 0
-0.125 0.125 0
-0.09375 0.21875 0
-0.0625 0.21875 0
-0.09375 0.1875 0
-0.0625 0.1875 0
-0.03125 0.21875 0
0 0.21875 0
-0.03125 0.1875 0
0 0.1875 0
-0.09375 0.15625 0
-0.0625 0.15625 0
-0.09375 0.125 0
-0.0625 0.125 0
-0.03125 0.15625 0
0 0.15625 0
-0.03125 0.125 0
0 0.125 0
-0.21875 0.09375 0
-0.1875 0.09375 0
-0.21875 0.0625 0
-0.1875 0.0625 0
-0.15625 0.09375 0
-0.125 0.09375 0
-0.15625 0.0625 0
-0.125 0.0625 0
-0.21875 0.03125 0
-0.1875 0.03125 0
-0.21875 0 0
-0.1875 0 0
-0.15625 0.03125 0
-0.125 0.03125 0
-0.15625 0 0
-0.125 0 0
-0.09375 0.09375 0
-0.0625 0.09375 0
-0.09375 0.0625 0
-0.0625 0.0625 0
-0.03125 0.09375 0
0 0.09375 0
-0.03125 0.0625 0
0 0.0625 0
-0.09375 0.03125 0
-0.0625 0.03125 0
-0.09375 0 0
-0.0625 0 0
-0.03125 0.03125 0
0 0.03125 0
-0.03125 0 0
0 0 0
0.03125 0.46875 0
0.03125 0.5 0
0.0625 0.46875 0
0.0625 0.5 0
0.03125 0.4375 0
0.0625 0.4375 0
0.09375 0.46875 0
0.09375 0.5 0
0.125 0.46875 0
0.125 0.5 0
0.09375 0.4375 0
0.125 0.4375 0
0.03125 0.40625 0
0.0625 0.40625 0
0.03125 0.375 0
0.0625 0.375 0
0.09375 0.40625 0
0.125 0.40625 0
0.09375 0.375 0
0.125 0.375 0
0.15625 0.46875 0
0.15625 0.5 0
0.1875 0.46875 0
0.1875 0.5 0
0.15625 0.4375 0
0.1875 0.4375 0
0.21875 0.46875 0
0.21875 0.5 0
0.25 0.46875 0
0.25 0.5 0
0.21875 0.4375 0
0.25 0.4375 0
0.15625 0.40625 0
0.1875 0.40625 0
0.15625 0.375 0
0.1875 0.375 0
0.21875 0.40625 0
0.25 0.40625 0
0.21875 0.375 0
0.25 0.375 0
0.03125 0.34375 0
0.0625 0.34375 0
0.03125 0.3125 0
0.0625 0.3125 0
0.09375 0.34375 0
0.125 0.34375 0
0.09375 0.3125 0
0.125 0.3125 0
0.03125 0.28125 0
0.0625 0.28125 0
0.03125 0.25 0
0.0625 0.25 0
0.09375 0.28125 0
0.125 0.28125 0
0.09375 0.25 0
0.125 0.25 0
0.15625 0.34375 0
0.1875 0.34375 0
0.15625 0.3125 0
0.1875 0.3125 0
0.21875 0.34375 0
0.25 0.34375 0
0.21875 0.3125 0
0.25 0.3125 0
0.15625 0.28125 0
0.1875 0.28125 0
0.15625 0.25 0
0.1875 0.25 0
0.21875 0.28125 0
0.25 0.28125 0
0.21875 0.25 0
0.25 0.25 0
0.28125 0.46875 0
0.28125 0.5 0
0.3125 0.46875 0
0.3125 0.5 0
0.28125 0.4375 0
0.3125 0.4375 0
0.34375 0.46875 0
0.34375 0.5 0
0.375 0.46875 0
0.375 0.5 0
0.34375 0.4375 0
0.375 0.4375 0
0.28125 0.40625 0
0.3125 0.40625 0
0.28125 0.375 0
0.3125 0.375 0
0.34375 0.40625 0
0.375 0.40625 0
0.34375 0.375 0
0.375 0.375 0
0.40625 0.46875 0
0.40625 0.5 0
0.4375 0.46875 0
0.4375 0.5 0
0.40625 0.4375 0
0.4375 0.4375 0
0.46875 0.46875 0
0.46875 0.5 0
0.5 0.46875 0
0.5 0.5 0
0.46875 0.4375 0
0.5 0.4375 0
0.40625 0.40625 0
0.4375 0.40625 0
0.40625 0.375 0
0.4375 0.375 0
0.46875 0.40625 0
0.5 0.40625 0
0.46875 0.375 0
0.5 0.375 0
0.28125 0.34375 0
0.3125 0.34375 0
0.28125 0.3125 0
0.3125 0.3125 0
0.34375 0.34375 0
0.375 0.34375 0
0.34375 0.3125 0
0.375 0.3125 0
0.28125 0.28125 0
0.3125 0.28125 0
0.28125 0.25 0
0.3125 0.25 0
0.34375 0.28125 0
0.375 0.28125 0
0.34375 0.25 0
0.375 0.25 0
0.40625 0.34375 0
0.4375 0.34375 0
0.40625 0.3125 0
0.4375 0.3125 0
0.46875 0.34375 0
0.5 0.34375 0
0.46875 0.3125 0
0.5 0.3125 0
0.40625 0.28125 0
0.4375 0.28125 0
0.40625 0.25 0
0.4375 0.25 0
0.46875 0.28125 0
0.5 0.28125 0
0.46875 0.25 0
0.5 0.25 0
0.03125 0.21875 0
0.0625 0.21875 0
0.03125 0.1875 0
0.0625 0.1875 0
0.09375 0.21875 0
0.125 0.21875 0
0.09375 0.1875 0
0.125 0.1875 0
0.03125 0.15625 0
0.0625 0.15625 0
0.03125 0.125 0
0.0625 0.125 0
0.09375 0.15625 0
0.125 0.15625 0
0.09375 0.125 0
0.125 0.125 0
0.15625 0.21875 0
0.1875 0.21875 0
0.15625 0.1875 0
0.1875 0.1875 0
0.21875 0.21875 0
0.25 0.21875 0
0.21875 0.1875 0
0.25 0.1875 0
0.15625 0.15625 0
0.1875 0.15625 0
0.15625 0.125 0
0.1875 0.125 0
0.21875 0.15625 0
0.25 0.15625 0
0.21875 0.125 0
0.25 0.125 0
0.03125 0.09375 0
0.0625 0.09375 0
0.03125 0.0625 0
0.0625 0.0625 0
0.09375 0.09375 0
0.125 0.09375 0
0.09375 0.0625 0
0.125 0.0625 0
0.03125 0.03125 0
0.0625 0.03125 0
0.03125 0 0
0.0625 0 0
0.09375 0.03125 0
0.125 0.03125 0
0.09375 0 0
0.125 0 0
0.15625 0.09375 0
0.1875 0.09375 0
0.15625 0.0625 0
0.1875 0.0625 0
0.21875 0.09375 0
0.25 0.09375 0
0.21875 0.0625 0
0.25 0.0625 0
0.15625 0.03125 0
0.1875 0.03125 0
0.15625 0 0
0.1875 0 0
0.21875 0.03125 0
0.25 0.03125 0
0.21875 0 0
0.25 0 0
0.28125 0.21875 0
0.3125 0.21875 0
0.28125 0.1875 0
0.3125 0.1875 0
0.34375 0.21875 0
0.375 0.21875 0
0.34375 0.1875 0
0.375 0.1875 0
0.28125 0.15625 0
0.3125 0.15625 0
0.28125 0.125 0
0.3125 0.125 0
0.34375 0.15625 0
0.375 0.15625 0
0.34375 0.125 0
0.375 0.125 0
0.40625 0.21875 0
0.4375 0.21875 0
0.40625 0.1875 0
0.4375 0.1875 0
0.46875 0.21875 0
0.5 0.21875 0
0.46875 0.1875 0
0.5 0.1875 0
0.40625 0.15625 0
0.4375 0.15625 0
0.40625 0.125 0
0.4375 0.125 0
0.46875 0.15625 0
0.5 0.15625 0
0.46875 0.125 0
0.5 0.125 0
0.28125 0.09375 0
0.3125 0.09375 0
0.28125 0.0625 0
0.3125 0.0625 0
0.34375 0.09375 0
0.375 0.09375 0
0.34375 0.0625 0
0.375 0.0625 0
0.28125 0.03125 0
0.3125 0.03125 0
0.28125 0 0
0.3125 0 0
0.34375 0.03125 0
0.375 0.03125 0
0.34375 0 0
0.375 0 0
0.40625 0.09375 0
0.4375 0.09375 0
0.40625 0.0625 0
0.4375 0.0625 0
0.46875 0.09375 0
0.5 0.09375 0
0.46875 0.0625 0
0.5 0.0625 0
0.40625 0.03125 0
0.4375 0.03125 0
0.40625 0 0
0.4375 0 0
0.46875 0.03125 0
0.5 0.03125 0
0.46875 0 0
0.5 0 0
-0.5 -0.03125 0
-0.46875 -0.03125 0
-0.4375 -0.03125 0
-0.5 -0.0625 0
-0.46875 -0.0625 0
-0.4375 -0.0625 0
-0.40625 -0.03125 0
-0.375 -0.03125 0
-0.40625 -0.0625 0
-0.375 -0.0625 0
-0.5 -0.09375 0
-0.46875 -0.09375 0
-0.4375 -0.09375 0
-0.5 -0.125 0
-0.46875 -0.125 0
-0.4375 -0.125 0
-0.40625 -0.09375 0
-0.375 -0.09375 0
-0.40625 -0.125 0
-0.375 -0.125 0
-0.34375 -0.03125 0
-0.3125 -0.03125 0
-0.34375 -0.0625 0
-0.3125 -0.0625 0
-0.28125 -0.03125 0
-0.25 -0.03125 0
-0.28125 -0.0625 0
-0.25 -0.0625 0
-0.34375 -0.09375 0
-0.3125 -0.09375 0
-0.34375 -0.125 0
-0.3125 -0.125 0
-0.28125 -0.09375 0
-0.25 -0.09375 0
-0.28125 -0.125 0
-0.25 -0.125 0
-0.5 -0.15625 0
-0.46875 -0.15625 0
-0.4375 -0.15625 0
-0.5 -0.1875 0
-0.46875 -0.1875 0
-0.4375 -0.1875 0
-0.40625 -0.15625 0
-0.375 -0.15625 0
[...]
POINT_DATA 1089
SCALARS T float
LOOKUP_TABLE default
0
0
0
0
0
0
0
0
0
0
0
0
0
0
0
0
0
0
0
0
0
0
0
0
0
0
0
0
0
0
0
0
0
0
0
0
0
0
0
0
0
0
0
0
0
0
0
0
0
0
0
0
0
0
0
0
0
0
0
0
0
0
0
0
0
0
0
0
0
0
0
0
0
0
0
0
0
0
0
0
0
0
0
0
0
0
0
0
0
0
0
0
0
0
0
0
0
0
0
0
0
0
0
0
0
0
0
0
0
0
0
0
0
0
0
0
0
0
0
0
0
0
0
0
0
0
0
0
0
0
0
0
0
0
0
0
0
0
0
0
0
0
0
0
0
0
0
0
0
0
0
0
0
0
0
0
0
0
0
0
0
0
0
0
0
0
0
0
0
0
0
0
0
0
0
0
0
0
0
0
0
0
0
0
0
0
0
0
0
0
0
0
0
0
0
0
0
0
0
0
0
0
0
0
0
0
0
0
0
0
0
0
0
0
0
0.0351367
0.205634
0
0.0452853
0.00825429
0.261642
0.314518
0.689729
0.737483
0.984096
0
0
0
0
0
0
0
0
0
0
0
0
0
0
0
0
0
0
0
0
0
0
0
0
0
0
0
0
0
0
0
0
0.00316161
0.0105336
0.416371
0.503141
0.00740774
3.57771e-05
0.467653
0.311874
0.913209
0.992607
1
1
0.960246
0.811838
1
1
0
0
0.103939
0.00245153
0
0
0
0
0.517032
0.169514
0.913092
0.536075
0.00396967
0
0.122983
0
0
0
0
0
0
0
0
0
0
0
0
0
0
0
0
0
0
0
0
0
0
0
0
0
0
0
0
0
0
0
0
0
0
0
0
0
0
0
0
0
0
0
0
0
0
0
0
0
0
0
0
0
0.0156496
0.173605
0.180478
0.588433
0
0
0
0
0
0
0
0
0.388204
0.4287
0.888204
0.9287
0.259971
0.0615198
0.736414
0.303525
0
0
0
0
0
0
0
0
0
0
0
0
0
0
0
0
0
0
0
0
0
0
0
0
0
0
0
0
0
0
0
0
0
0
0
0
0
0
0
0
0
0
0
0
0
0
0
0
0
0
0.015562
0
0
0
0
0
0
0
0
0
0
0
0
0
0
0
0
0
0
0
0
0
0
0.00496182
0
0.00885387
0.414065
0.909103
0.496512
0.987659
0
0.00389205
0
0
0.409521
0.905629
0.184121
0.604216
1
1
1
1
0.976443
0.564727
1
0.640693
1
1
0.908534
0.934749
0.970088
0.546311
0.715123
0.277066
0
0
0
0
0.0218761
0.191971
0
0
0
0
0
0
0
0
0
0
0.408534
0.434754
0
5.12265e-06
0.245041
0.0487263
5.12265e-06
0
0
0
0
0
0
0
0
0
0.0882839
0
0.140693
0
0
0
0
0
0.0762228
0
0.00825194
0
0
0
0
0
0
0
0
0
0
0
0
0
0
0
0
0
0
0
0
0
0
0
0
0
0
0
0
0
0
0
0
0
0
0
0
0
0
0
0
0
0
0
0
0
0
0
0
0
0
0
0
0
0
0
0
0
0
0
0
0
0
0
0
0
0
0
0
0
0
0
0
0
0.0941973
0.552299
0.244911
0.744911
0.958102
1
1
1
0.352207
0.852207
0.385047
0.885047
1
1
1
1
0
0
0
0
0
0
0
0
0
0
0
0
0
0
0
0
0
0
0
0
0.346101
0.846101
0.230526
0.730526
1
1
1
1
0.0798442
0.523933
0.00361137
0.227104
0.944088
1
0.689724
0.966232
1
1
1
1
1
1
1
1
1
1
1
1
1
1
1
1
1
0.855479
1
0.986466
0.367924
0.0124449
0.571004
0.0845381
1
1
1
1
0.669999
0.17
0.681458
0.181458
1
1
1
1
1
1
1
1
1
1
1
1
1
1
1
0.991364
1
0.999677
1
0.933821
0.61337
0.113692
0.463962
0.030141
0.992416
0.722683
0.812296
0.367055
0.230266
0
0.0461227
0
0
0
0
0
0
0
0
0
0
0
0
0
0
0
0
0
0
0
0
0
0
0.0294038
0
0
0.259647
0.606543
0.0140119
0.140311
0
0
0
0
0
0
0
0
0
0
0
0
0
0
0
0
0
0
0
0
0
0
0
0
0
0
0
0
0
0
0
0
0
0
0
0
0
0
0
0
0
0
0
0
0.823955
0.903105
0.323955
0.403105
0.856855
0.679831
0.356855
0.188467
0
0
0
0
0
0
0
0
0.356942
0.0785157
0.0370617
0
0
0
0
0
0
0
0
0
0
0
0
0
0
0
0
0
0
0
0
0
0
0
0
0
0
0
0
0
0
0
0
0
0
0
0
0
0
0
0
0
0
0
0
0
0
0
0
0
0
0
0
0.00190659
0
0
0
0
0
0.0541646
0
0.188359
0.0124098
0.140578
0.1963
0.572562
0.146285
0.0181169
0.460035
0.0818665
0.486149
0.931984
0.688359
1
0.657623
0.157623
0.654938
0.154938
0
0
0
0
0
0.324185
0
0.253244
0
0
0
0
0
0.0651598
0
0
0.824185
0.969449
0.718848
0.764914
0.535936
0.0664869
0.304733
0.00542269
0.280764
0.295465
0
0
0.0798613
0
0
0
0
0
0
0
0
0
0
0
0
0
0
0
0
0
0
0
0
0
0
0
0
0
0
0
0
0
0
0
0
0
0
0
0
0
0
0
0
0
0
0
0
0
0
0
0
0
0
0
0
0
0
0
0
0
0
0
0
0
0
0
0
0
0
0
0
0
0
0
0
0
0
0
0
0
0
0
0
0
0
0
0
0
0
0
0
0
0
0
0
0
0
0
0
0
0
0
0
0
0
0
0
0
0
0
0
0
0
0
0
0
0
0
0
0
0
0
0
0
0
0
0
0
0
0
0
0
0
0
0
0
0
0
0
0
0
0
0
0
0
0
0
0
0
0
0
0
0
0
0
0
0
0
0
0
0
0
0
0
0
0
0
0
0
0
0
0
0
0
0
0
0
0
0
0
0
0
0
0
0
0
0
0
0
0
0
0
0
0
0
0
0
0

SCALARS P float
LOOKUP_TABLE default
-0.00752876
-0.00760403
-0.00760305
-0.00767885
-0.0077522
-0.00783884
-0.00738421
-0.00746728
-0.00761257
-0.00796281
-0.0080736
-0.00822714
-0.0083762
-0.0078092
-0.0080477
-0.00717866
-0.00727821
-0.00743022
-0.00691985
-0.00704488
-0.0072132
-0.00762356
-0.00784857
-0.00741371
-0.00763693
-0.00853321
-0.00873399
-0.00886899
-0.00913509
-0.00831668
-0.00860462
-0.00921928
-0.00956127
-0.00956797
-0.00999188
-0.00889845
-0.00918501
-0.00809423
-0.00834933
-0.00787196
-0.00810768
-0.00860181
-0.00884013
-0.00833209
-0.00853415
-0.00661369
-0.0067742
-0.00696895
-0.00626834
-0.00647394
-0.00670478
-0.00718733
-0.0074205
-0.00695137
-0.0072061
-0.00589012
-0.00615051
-0.00642673
-0.00549094
-0.00581256
-0.00614092
-0.00671154
-0.00699954
-0.00647222
-0.00680483
-0.00765743
-0.00788682
-0.00745756
-0.00769422
-0.00809577
-0.00827252
-0.00790103
-0.00806442
-0.00727885
-0.007538
-0.00712629
-0.00742634
-0.00775816
-0.00792282
-0.0076799
-0.00786598
-0.00989805
-0.0104011
-0.010194
-0.0107631
-0.00945187
-0.00968869
-0.0104524
-0.0110737
-0.0106751
-0.0113369
-0.0098925
-0.0100649
-0.00905412
-0.00923613
-0.00870413
-0.00883523
-0.00938374
-0.00949882
-0.00892547
-0.00897736
-0.0108744
-0.0115763
-0.0110633
-0.0118163
-0.010213
-0.0103462
-0.0112472
-0.0120653
-0.0114246
-0.0123177
-0.0104688
-0.0105852
-0.00958699
-0.00965724
-0.00899686
-0.00899489
-0.00971578
-0.0097743
-0.00898062
-0.00897517
-0.00840624
-0.00848937
-0.00817047
-0.00820886
-0.00852004
-0.00850138
-0.00817717
-0.00807906
-0.00801184
-0.00800874
-0.00795326
-0.00791364
-0.00791021
-0.00772091
-0.00774249
-0.00744628
-0.00844096
-0.00835251
-0.00792478
-0.00772943
-0.00824813
-0.00816038
-0.00750718
-0.00730203
-0.00745472
-0.00712638
-0.00704612
-0.00655421
-0.00675044
-0.00637459
-0.00597999
-0.00535881
-0.00508362
-0.00546799
-0.00585166
-0.00468164
-0.00512303
-0.00555985
-0.00623555
-0.00662406
-0.00599857
-0.00645249
-0.00429977
-0.00478307
-0.00526405
-0.00393876
-0.00444344
-0.00495205
-0.00575464
-0.00628118
-0.00548207
-0.0060806
-0.00700389
-0.00736838
-0.00690687
-0.00736437
-0.00768125
-0.00791694
-0.00777432
-0.00811096
-0.00682878
-0.00742405
-0.00673666
-0.00752345
-0.00799168
-0.00850195
-0.00833963
-0.00918883
-0.00359407
-0.00409696
-0.00461031
-0.00325944
-0.00373191
-0.00421439
-0.00516213
-0.00582949
-0.00474988
-0.00544691
-0.00293193
-0.00334663
-0.00375688
-0.00262032
-0.00294469
-0.00322147
-0.00422668
-0.00488521
-0.00352905
-0.00396732
-0.00661948
-0.00770113
-0.00637152
-0.0078032
-0.00893282
-0.0103155
-0.00700219
0.0038336
-0.00592813
-0.00475028
-0.00443092
0.00839272
0.0111463
0.0361995
0.0364162
0.0532694
-0.00802684
-0.00795822
-0.00828859
-0.00820085
-0.00770433
-0.0072811
-0.00784251
-0.00725826
-0.00881525
-0.00871839
-0.00981171
-0.00971391
-0.00821492
-0.00742718
-0.00893257
-0.00780367
-0.00672473
-0.00604302
-0.00651825
-0.00563516
-0.00523683
-0.00430587
-0.00461088
-0.00337652
-0.00648069
-0.00542131
-0.00656325
-0.00533356
-0.00427966
-0.00293143
-0.00415827
-0.00286959
-0.0109763
-0.00993692
0.0185474
0.024973
-0.00917898
-0.00853021
0.0224227
0.012099
0.0527038
0.0582279
0.0555656
0.0559072
0.0549353
0.0438123
0.0552045
0.0537945
-0.00687749
-0.00539296
-0.00022765
-0.00521606
-0.00413614
-0.00283478
-0.00410319
-0.00268398
0.0245418
0.00430553
0.0469906
0.0244409
-0.00391998
-0.00250758
0.00216414
-0.0025237
-0.0115805
-0.0125494
-0.0116979
-0.0127292
-0.0106882
-0.0107735
-0.0117425
-0.012805
-0.0116844
-0.0127325
-0.01082
-0.0108044
-0.00983438
-0.0099068
-0.00899014
-0.00905539
-0.00998265
-0.0100397
-0.00918504
-0.00935323
-0.0114884
-0.0124633
-0.0111369
-0.0119818
-0.0106928
-0.010451
-0.0106499
-0.0113435
-0.0100786
-0.0106339
-0.0100648
-0.00956998
-0.0100398
-0.00991315
-0.00951915
-0.0095427
-0.00959149
-0.00910756
-0.00924854
-0.00868917
-0.00811284
-0.00815904
-0.00715067
-0.00713791
-0.00836751
-0.00869864
-0.00747849
-0.00809276
-0.00604099
-0.00584364
-0.00470451
-0.00408323
-0.0043841
0.0139093
0.0169299
0.0650814
-0.00915918
-0.00946507
-0.00903836
-0.00977061
-0.00914671
-0.0083329
-0.00934145
-0.00800996
0.0398122
0.0448143
0.102452
0.108588
0.0234571
-1.82286e-05
0.0836817
0.0310093
-0.00949454
-0.00992931
-0.00894876
-0.00928238
-0.00905256
-0.00857014
-0.00847678
-0.00872993
-0.00809505
-0.00828497
-0.00815519
-0.00782498
-0.00859904
-0.00814344
-0.00812041
-0.00765835
-0.00776427
-0.00747673
-0.00729822
-0.00704963
-0.00781237
-0.00795466
-0.00762669
-0.00773481
-0.0075867
-0.00743708
-0.00753427
-0.00762015
-0.00752876
-0.00760431
-0.00737201
-0.00738421
-0.00728204
-0.00717225
-0.00690148
-0.00683777
-0.0071409
-0.00717866
-0.00684799
-0.00691985
-0.00758021
-0.00707835
-0.00689558
-0.00635305
-0.00672949
-0.00652809
-0.00603269
-0.00590503
-0.00585483
-0.00536202
-0.00223325
-0.00390364
-0.00514646
-0.00515353
-0.00402747
-0.00427841
-0.00643878
-0.00643375
-0.00589621
-0.00596677
-0.00649715
-0.00661369
-0.00609637
-0.00626834
-0.00526551
-0.00543784
-0.00456441
-0.00486561
-0.00565063
-0.00589012
-0.00517543
-0.00549094
-0.00315513
-0.00111697
-0.00175739
0.00158485
0.0458104
0.103099
0.056388
0.111851
-0.00131178
0.00137953
-0.00158228
-0.000101604
0.0479635
0.104999
0.0220802
0.0727603
0.115863
0.117002
0.115944
0.116749
0.113111
0.0635599
0.115121
0.0724947
0.118246
0.11859
0.111634
0.114598
0.112417
0.0627594
0.085052
0.0331674
-0.00168547
-0.000608467
-0.0013976
-0.000133174
0.0023776
0.0233401
0.00057904
0.000606121
-0.000885294
0.000824185
-0.000437708
0.00177161
0.0021594
0.00346754
0.00369866
0.00654556
0.0505283
0.0537286
-0.000189152
0.00059572
0.0303732
0.00711672
0.00214329
0.00197257
0.00344935
0.00526983
0.00725116
0.010298
0.00589069
0.0032166
0.00955955
0.00369997
0.00815525
-0.00207462
0.0157537
-0.000443869
-0.00275654
-0.00333514
-0.00160579
-0.00246141
0.00994078
0.000467575
0.00279737
0.000656269
-0.000849343
-0.00181552
-0.000488867
-0.00140098
-0.00383252
-0.00427794
-0.00314354
-0.00371583
-0.00469002
-0.00508362
-0.0042184
-0.00468164
-0.00258748
-0.00323033
-0.00217009
-0.00282765
-0.00378935
-0.00429977
-0.00340723
-0.00393876
0.00142797
0.000584681
0.00153652
0.000747914
-0.000327179
-0.00112862
-0.00013766
-0.000895787
0.00216709
0.00106349
0.00242047
0.00118819
6.79513e-05
-0.000689261
0.000183118
-0.000538599
-0.00185371
-0.00249316
-0.00159439
-0.00220885
-0.00306593
-0.00359407
-0.00275771
-0.00325944
-0.00137568
-0.00196209
-0.00120559
-0.00175898
-0.0024758
-0.00293193
-0.00222837
-0.00262032
-0.00235214
-0.00256441
-0.00266644
-0.00216775
-0.00226881
-0.00219912
-0.00272616
-0.00279632
-0.00198115
-0.00166012
-0.00210351
-0.00212622
-0.00192993
-0.00221004
-0.00222058
-0.00199697
-0.00147864
-0.000838558
-0.00148787
-0.000779604
0.0012385
0.0246218
0.00961413
0.0342934
0.0476051
0.0521785
0.0490791
0.0510717
0.015328
0.0394471
0.0168862
0.0408777
0.0486921
0.0503497
0.0484329
0.0499215
-0.00253331
-0.00258766
-0.00243954
-0.00306411
-0.00318885
-0.00318137
-0.00208473
-0.00159922
-0.00310626
-0.00303075
-0.00374121
-0.00392014
-0.00404808
-0.00449523
-0.00469483
-0.00491591
-0.00421772
-0.00451029
-0.00523318
-0.00572481
0.0144716
0.0387766
0.00776843
0.0327442
0.048175
0.0496823
0.0480557
0.0497577
-0.00118196
0.0215936
-0.00641191
0.00482428
0.0451899
0.0502236
0.031601
0.0495395
0.0535421
0.0540192
0.0522352
0.0526462
0.0536503
0.0526638
0.0524188
0.0517033
0.051334
0.051626
0.0507533
0.0508954
0.0513847
0.0506973
0.0504779
0.0495459
0.0513202
0.0417675
0.0507518
0.0489823
0.0148719
-0.0025038
0.0254196
0.000228888
0.0497692
0.0488883
0.0482342
0.0468021
0.030094
0.00441969
0.0290233
0.00401769
0.0504589
0.0504759
0.0505643
0.0504914
0.0497828
0.0484187
0.0494474
0.0475095
0.0512175
0.0511261
0.0526939
0.0525913
0.0497254
0.0471387
0.0508874
0.0472162
0.0464471
0.0441053
0.0446549
0.0379497
0.0228723
-0.00255356
0.0126358
-0.0102364
0.0429405
0.0255264
0.0330597
0.00636028
-0.00112558
-0.0147884
-0.0119209
-0.0169274
-0.00524425
-0.00544682
-0.00572856
-0.00592656
-0.00611763
-0.0064239
-0.00614026
-0.00675372
-0.00687543
-0.00753838
-0.00650522
-0.00667313
-0.00696999
-0.00695874
-0.00710101
-0.00737309
-0.00740736
-0.00803059
-0.00777675
-0.00833968
-0.0077551
-0.00737103
-0.00854191
-0.00994077
0.00547003
0.0277387
-0.0109025
-0.00355909
-0.00888792
-0.0100291
-0.00907108
-0.00998862
-0.0115872
-0.0134357
-0.0111064
-0.0123739
-0.00728825
-0.00740573
-0.00764571
-0.00749677
-0.0075937
-0.00780123
-0.00800414
-0.00849395
-0.00811199
-0.00852874
-0.00759785
-0.00768027
-0.00786039
-0.00760431
-0.00767885
-0.00783884
-0.00812906
-0.00848283
-0.0080736
-0.0083762
-0.00910869
-0.00985059
-0.00903979
-0.00963875
-0.0107024
-0.0116126
-0.0103023
-0.0109957
-0.00890872
-0.00939624
-0.00873399
-0.00913509
-0.00992338
-0.0104626
-0.00956127
-0.00999188
0.0437071
0.0492715
0.00885392
0.0138975
0.044099
0.0289944
0.00956096
-0.00295982
-0.0151293
-0.0161718
-0.0135705
-0.0143766
-0.0163817
-0.0158672
-0.0147067
-0.0146346
0.00677995
-0.0101419
-0.0130621
-0.015355
-0.0155802
-0.017788
-0.0161908
-0.0178006
-0.0152475
-0.0152693
-0.0145391
-0.014793
-0.015965
-0.017183
-0.0153985
-0.0163008
-0.0124582
-0.0130947
-0.0116471
-0.0121723
-0.0134982
-0.0136915
-0.0125617
-0.0128311
-0.0109725
-0.0114094
-0.0104011
-0.0107631
-0.011768
-0.0120552
-0.0110737
-0.0113369
-0.0138447
-0.0141496
-0.0130736
-0.0133857
-0.0146437
-0.0153008
-0.01379
-0.0142714
-0.0123164
-0.0125999
-0.0115763
-0.0118163
-0.0129212
-0.0132713
-0.0120653
-0.0123177
-0.000593799
0.0019068
-0.0016828
0.000257927
0.0043026
0.0078616
0.00173201
0.00432188
-0.00193265
0.00053438
-0.00322837
7.64222e-05
0.00360184
0.0112568
0.00666129
0.0292552
0.0107056
0.0210394
0.0333341
0.0682741
0.0201619
0.00645608
0.0492778
0.0100662
0.0604137
0.099281
0.0817421
0.101296
0.0618657
0.0121536
0.0547915
0.011892
-0.00904442
-0.0103246
-0.0155482
-0.0216938
-0.0104811
0.0468837
-0.0307183
0.0249527
-0.0195538
-0.0264416
-0.021262
-0.0273913
-0.0362104
-0.0305312
-0.0350373
-0.047952
0.133927
0.128033
0.149215
0.13634
0.0557157
0.0127655
0.0375849
0.0115339
0.0259373
0.0364785
-0.0627851
-0.045252
0.00109127
0.000654366
-0.0163904
-0.00838754
0.00283921
0.00137526
-0.00108798
-9.22411e-05
0.000298923
-0.000430102
-0.000238139
-0.00059265
-0.00208997
8.19123e-05
0.00193618
0.00199242
-4.66663e-05
-0.00045946
0.000841509
-0.000110912
-0.00108935
-0.00161209
-0.00110346
-0.00155309
-0.00203366
-0.00235214
-0.00191919
-0.00216775
-0.00104057
-0.00152494
-0.000952194
-0.00156622
-0.00188901
-0.00210351
-0.00198259
-0.00221004
0.00527199
0.00291385
0.00618724
0.00267943
0.00108717
-0.000204919
0.000566951
-0.000797656
0.00058155
-0.000550917
-0.00493323
-0.00399633
-0.00143026
-0.00214108
-0.00372387
-0.00374629
-0.00116831
-0.00183846
-0.00173832
-0.00237342
-0.00228253
-0.00253331
-0.00279974
-0.00306411
-0.00272129
-0.00316217
-0.00390668
-0.00409966
-0.0034959
-0.00374121
-0.00429939
-0.00449523
-0.0211246
-0.0254841
-0.0201837
-0.0231004
-0.030388
-0.0368597
-0.0261099
-0.0291101
-0.0188445
-0.0207323
-0.0174304
-0.0186268
-0.0225063
-0.023908
-0.0196444
-0.0202506
-0.0421479
-0.0314266
-0.0306396
-0.0249089
-0.0166443
-0.0114279
-0.0170332
-0.0129135
-0.0241005
-0.0207942
-0.0199721
-0.0179365
-0.0162625
-0.0131761
-0.0151706
-0.0129089
-0.0160609
-0.0168104
-0.0147831
-0.0152489
-0.0173756
-0.0175901
-0.0155506
-0.0155792
-0.0136154
-0.0139037
-0.0125494
-0.0127292
-0.0140573
-0.0140068
-0.012805
-0.0127325
-0.0171922
-0.0158648
-0.0151905
-0.0142752
-0.0140791
-0.0124225
-0.0130592
-0.011835
-0.0136715
-0.0130151
-0.0124633
-0.0119818
-0.0121501
-0.0112301
-0.0113435
-0.0106339
-0.0079006
-0.00632956
-0.00982566
-0.00803701
-0.00552547
-0.00514691
-0.00695308
-0.00632212
-0.0107142
-0.00905092
-0.0110009
-0.00956948
-0.00793331
-0.00720722
-0.00853298
-0.00780857
-0.00501707
-0.00501683
-0.00598986
-0.00584417
-0.00510005
-0.00524425
-0.00583229
-0.00592656
-0.00676948
-0.00653398
-0.00733713
-0.00705957
-0.0064547
-0.00650522
-0.00694079
-0.00695874
-0.0109538
-0.00976565
-0.0107016
-0.00973262
-0.00885352
-0.00818056
-0.00895389
-0.00835583
-0.0103457
-0.00955742
-0.00992931
-0.00928238
-0.00890094
-0.00838166
-0.00872993
-0.00828497
-0.00771851
-0.00743064
-0.00792932
-0.0076537
-0.00729286
-0.00728825
-0.00751365
-0.00749677
-0.00800137
-0.00775001
-0.00795466
-0.00773481
-0.00761854
-0.00759785
-0.00762015
-0.00760305

SCALARS U float
LOOKUP_TABLE default
0.024809
0.0254933
0.0251507
0.0258847
0.026113
0.0266008
0.0245264
0.0251645
0.0257184
0.0266286
0.0272496
0.0269752
0.0277545
0.0261485
0.0263987
0.0243119
0.0249247
0.0254478
0.0241668
0.0247797
0.0253098
0.0258405
0.0260509
0.0257127
0.0259356
0.0270656
0.0280055
0.0267995
0.02786
0.0264001
0.0260804
0.0260711
0.0271373
0.0248254
0.0257166
0.0253755
0.0242622
0.0260198
0.0256894
0.0259203
0.0256117
0.0250156
0.0239892
0.0249698
0.0239876
0.0240783
0.0247232
0.0253017
0.0240115
0.0247327
0.0254087
0.0257639
0.0260512
0.025985
0.0263938
0.0239354
0.0247836
0.025609
0.0238088
0.0248351
0.0258589
0.0263575
0.0269508
0.0268355
0.0276775
0.0260986
0.0258419
0.0265563
0.026388
0.0252319
0.024254
0.0258157
0.024806
0.0272902
0.0272587
0.0282663
0.0284409
0.0267409
0.0256675
0.0280177
0.0268633
0.0231077
0.0236322
0.0210782
0.0211144
0.0227863
0.0210671
0.0189753
0.0185215
0.0170413
0.0162123
0.0192744
0.0175829
0.0226536
0.0211057
0.0227058
0.0212127
0.0194788
0.0179103
0.0196281
0.0180753
0.0154538
0.0144277
0.0142873
0.0132311
0.0161309
0.0149915
0.0135371
0.0125572
0.0131387
0.0122661
0.0141904
0.0137058
0.0165154
0.0153614
0.0166599
0.0154412
0.01449
0.0139025
0.0144657
0.0137355
0.0229459
0.0214011
0.0233936
0.0216927
0.0197461
0.018113
0.0198618
0.0180721
0.024068
0.0220983
0.0249921
0.0226294
0.0199806
0.0179666
0.0200995
0.0177939
0.0166136
0.0152988
0.0164647
0.0150882
0.0142094
0.0133137
0.0139666
0.0129694
0.0162625
0.0149384
0.0160389
0.0149643
0.0139996
0.0131876
0.014575
0.0145635
0.0236347
0.0248503
0.026091
0.0234101
0.024761
0.0261831
0.0273286
0.0284715
0.0276718
0.0291473
0.0230662
0.0244467
0.0259592
0.0224937
0.0237602
0.0252307
0.0276492
0.0295085
0.0270744
0.0294789
0.0293923
0.0298803
0.0305219
0.0315465
0.0296445
0.028428
0.0317356
0.0305539
0.0316134
0.033668
0.0328983
0.0368739
0.0347539
0.0337567
0.039568
0.0388094
0.0215741
0.0225961
0.0239132
0.0202792
0.020957
0.0220369
0.0259364
0.0292152
0.0242431
0.028586
0.0187456
0.0190065
0.019746
0.0171742
0.016925
0.0170454
0.0218781
0.0267614
0.0182334
0.0217184
0.0348224
0.041556
0.0366018
0.0451832
0.0456291
0.044053
0.0469156
0.0410536
0.0353706
0.0419711
0.0265286
0.0258473
0.0372139
0.026678
0.0164056
0.00943854
0.026196
0.0232788
0.0278287
0.0240662
0.0201561
0.01744
0.0199999
0.0166028
0.0302324
0.0250239
0.0336879
0.0258561
0.0193233
0.0147067
0.0174299
0.0107692
0.0156372
0.0149507
0.014659
0.0144092
0.0153716
0.0165619
0.0156703
0.0179461
0.0124108
0.0126928
0.00774896
0.00873508
0.014925
0.0180895
0.012415
0.016465
0.0362129
0.0254028
0.0323652
0.024772
0.0146686
0.00588398
0.0179455
0.00989072
0.0218691
0.0233297
0.0125253
0.0209473
0.0259804
0.0246957
0.0304704
0.0374904
0.00144834
0.00282577
0.00263068
0.000774155
0.00858454
0.0146845
0.00620512
0.0146668
0.0174828
0.00940435
0.0365853
0.0279539
0.00953553
0.0176535
0.0225373
0.0264336
0.0130408
0.0122642
0.0131883
0.0124733
0.0135236
0.0136159
0.0135472
0.0128618
0.0141077
0.0134267
0.0139617
0.0145725
0.0136225
0.0136494
0.0133023
0.0131706
0.0139942
0.014757
0.0134256
0.0144574
0.0148518
0.0141886
0.0157482
0.0151903
0.0154051
0.0163325
0.0167058
0.0163352
0.0176945
0.0175405
0.017205
0.0180243
0.0158995
0.0171077
0.0163311
0.0183063
0.0180298
0.0186847
0.0195076
0.0199446
0.012644
0.0121326
0.0120085
0.0108624
0.0120469
0.0135201
0.0102721
0.0124919
0.0122738
0.0109376
0.0146917
0.0144668
0.0102564
0.0120828
0.0144596
0.014859
0.0168219
0.0202292
0.0174108
0.0220152
0.0218988
0.0219315
0.024021
0.0237078
0.0153999
0.0188398
0.0138827
0.0126004
0.02079
0.0205833
0.0112178
0.0101379
0.0187043
0.0187373
0.0197147
0.0198744
0.0188561
0.0197257
0.0206983
0.0209337
0.0216264
0.0218974
0.0206083
0.0214695
0.019289
0.0199612
0.0201544
0.0204753
0.0206921
0.0214419
0.020955
0.0215331
0.0224976
0.0227813
0.0233118
0.0236005
0.0222989
0.0230849
0.0240809
0.024381
0.024809
0.0251289
0.0238294
0.0245264
0.0221942
0.022929
0.022171
0.0228342
0.0236403
0.0243119
0.0235088
0.0241668
0.0214538
0.0211784
0.0225965
0.0216648
0.0212811
0.0216513
0.0213418
0.0215585
0.0203417
0.0204019
0.0124189
0.0158828
0.0204792