# vtk DataFile Version 2.0
Gerris simulation version 1.3.2 (131206-155120)
ASCII
DATASET UNSTRUCTURED_GRID

POINTS 1089 float
-0.5 0.46875 0
-0.46875 0.46875 0
-0.5 0.5 0
-0.46875 0.5 0
-0.4375 0.46875 0
-0.4375 0.5 0
-0.5 0.4375 0
-0.46875 0.4375 0
-0.4375 0.4375 0
-0.40625 0.46875 0
-0.40625 0.5 0
-0.375 0.46875 0
-0.375 0.5 0
-0.40625 0.4375 0
-0.375 0.4375 0
-0.5 0.40625 0
-0.46875 0.40625 0
-0.4375 0.40625 0
-0.5 0.375 0
-0.46875 0.375 0
-0.4375 0.375 0
-0.40625 0.40625 0
-0.375 0.40625 0
-0.40625 0.375 0
-0.375 0.375 0
-0.34375 0.46875 0
-0.34375 0.5 0
-0.3125 0.46875 0
-0.3125 0.5 0
-0.34375 0.4375 0
-0.3125 0.4375 0
-0.28125 0.46875 0
-0.28125 0.5 0
-0.25 0.46875 0
-0.25 0.5 0
-0.28125 0.4375 0
-0.25 0.4375 0
-0.34375 0.40625 0
-0.3125 0.40625 0
-0.34375 0.375 0
-0.3125 0.375 0
-0.28125 0.40625 0
-0.25 0.40625 0
-0.28125 0.375 0
-0.25 0.375 0
-0.5 0.34375 0
-0.46875 0.34375 0
-0.4375 0.34375 0
-0.5 0.3125 0
-0.46875 0.3125 0
-0.4375 0.3125 0
-0.40625 0.34375 0
-0.375 0.34375 0
-0.40625 0.3125 0
-0.375 0.3125 0
-0.5 0.28125 0
-0.46875 0.28125 0
-0.4375 0.28125 0
-0.5 0.25 0
-0.46875 0.25 0
-0.4375 0.25 0
-0.40625 0.28125 0
-0.375 0.28125 0
-0.40625 0.25 0
-0.375 0.25 0
-0.34375 0.34375 0
-0.3125 0.34375 0
-0.34375 0.3125 0
-0.3125 0.3125 0
-0.28125 0.34375 0
-0.25 0.34375 0
-0.28125 0.3125 0
-0.25 0.3125 0
-0.34375 0.28125 0
-0.3125 0.28125 0
-0.34375 0.25 0
-0.3125 0.25 0
-0.28125 0.28125 0
-0.25 0.28125 0
-0.28125 0.25 0
-0.25 0.25 0
-0.21875 0.46875 0
-0.21875 0.5 0
-0.1875 0.46875 0
-0.1875 0.5 0
-0.21875 0.4375 0
-0.1875 0.4375 0
-0.15625 0.46875 0
-0.15625 0.5 0
-0.125 0.46875 0
-0.125 0.5 0
-0.15625 0.4375 0
-0.125 0.4375 0
-0.21875 0.40625 0
-0.1875 0.40625 0
-0.21875 0.375 0
-0.1875 0.375 0
-0.15625 0.40625 0
-0.125 0.40625 0
-0.15625 0.375 0
-0.125 0.375 0
-0.09375 0.46875 0
-0.09375 0.5 0
-0.0625 0.46875 0
-0.0625 0.5 0
-0.09375 0.4375 0
-0.0625 0.4375 0
-0.03125 0.46875 0
-0.03125 0.5 0
0 0.46875 0
0 0.5 0
-0.03125 0.4375 0
0 0.4375 0
-0.09375 0.40625 0
-0.0625 0.40625 0
-0.09375 0.375 0
-0.0625 0.375 0
-0.03125 0.40625 0
0 0.40625 0
-0.03125 0.375 0
0 0.375 0
-0.21875 0.34375 0
-0.1875 0.34375 0
-0.21875 0.3125 0
-0.1875 0.3125 0
-0.15625 0.34375 0
-0.125 0.34375 0
-0.15625 0.3125 0
-0.125 0.3125 0
-0.21875 0.28125 0
-0.1875 0.28125 0
-0.21875 0.25 0
-0.1875 0.25 0
-0.15625 0.28125 0
-0.125 0.28125 0
-0.15625 0.25 0
-0.125 0.25 0
-0.09375 0.34375 0
-0.0625 0.34375 0
-0.09375 0.3125 0
-0.0625 0.3125 0
-0.03125 0.34375 0
0 0.34375 0
-0.03125 0.3125 0
0 0.3125 0
-0.09375 0.28125 0
-0.0625 0.28125 0
-0.09375 0.25 0
-0.0625 0.25 0
-0.03125 0.28125 0
0 0.28125 0
-0.03125 0.25 0
0 0.25 0
-0.5 0.21875 0
-0.46875 0.21875 0
-0.4375 0.21875 0
-0.5 0.1875 0
-0.46875 0.1875 0
-0.4375 0.1875 0
-0.40625 0.21875 0
-0.375 0.21875 0
-0.40625 0.1875 0
-0.375 0.1875 0
-0.5 0.15625 0
-0.46875 0.15625 0
-0.4375 0.15625 0
-0.5 0.125 0
-0.46875 0.125 0
-0.4375 0.125 0
-0.40625 0.15625 0
-0.375 0.15625 0
-0.40625 0.125 0
-0.375 0.125 0
-0.34375 0.21875 0
-0.3125 0.21875 0
-0.34375 0.1875 0
-0.3125 0.1875 0
-0.28125 0.21875 0
-0.25 0.21875 0
-0.28125 0.1875 0
-0.25 0.1875 0
-0.34375 0.15625 0
-0.3125 0.15625 0
-0.34375 0.125 0
-0.3125 0.125 0
-0.28125 0.15625 0
-0.25 0.15625 0
-0.28125 0.125 0
-0.25 0.125 0
-0.5 0.09375 0
-0.46875 0.09375 0
-0.4375 0.09375 0
-0.5 0.0625 0
-0.46875 0.0625 0
-0.4375 0.0625 0
-0.40625 0.09375 0
-0.375 0.09375 0
-0.40625 0.0625 0
-0.375 0.0625 0
-0.5 0.03125 0
-0.46875 0.03125 0
-0.4375 0.03125 0
-0.5 0 0
-0.46875 0 0
-0.4375 0 0
-0.40625 0.03125 0
-0.375 0.03125 0
-0.40625 0 0
-0.375 0 0
-0.34375 0.09375 0
-0.3125 0.09375 0
-0.34375 0.0625 0
-0.3125 0.0625 0
-0.28125 0.09375 0
-0.25 0.09375 0
-0.28125 0.0625 0
-0.25 0.0625 0
-0.34375 0.03125 0
-0.3125 0.03125 0
-0.34375 0 0
-0.3125 0 0
-0.28125 0.03125 0
-0.25 0.03125 0
-0.28125 0 0
-0.25 0 0
-0.21875 0.21875 0
-0.1875 0.21875 0
-0.21875 0.1875 0
-0.1875 0.1875 0
-0.15625 0.21875 0
-0.125 0.21875 0
-0.15625 0.1875 0
-0.125 0.1875 0
-0.21875 0.15625 0
-0.1875 0.15625 0
-0.21875 0.125 0
-0.1875 0.125 0
-0.15625 0.15625 0
-0.125 0.15625 0
-0.15625 0.125 0
-0.125 0.125 0
-0.09375 0.21875 0
-0.0625 0.21875 0
-0.09375 0.1875 0
-0.0625 0.1875 0
-0.03125 0.21875 0
0 0.21875 0
-0.03125 0.1875 0
0 0.1875 0
-0.09375 0.15625 0
-0.0625 0.15625 0
-0.09375 0.125 0
-0.0625 0.125 0
-0.03125 0.15625 0
0 0.15625 0
-0.03125 0.125 0
0 0.125 0
-0.21875 0.09375 0
-0.1875 0.09375 0
-0.21875 0.0625 0
-0.1875 0.0625 0
-0.15625 0.09375 0
-0.125 0.09375 0
-0.15625 0.0625 0
-0.125 0.0625 0
-0.21875 0.03125 0
-0.1875 0.03125 0
-0.21875 0 0
-0.1875 0 0
-0.15625 0.03125 0
-0.125 0.03125 0
-0.15625 0 0
-0.125 0 0
-0.09375 0.09375 0
-0.0625 0.09375 0
-0.09375 0.0625 0
-0.0625 0.0625 0
-0.03125 0.09375 0
0 0.09375 0
-0.03125 0.0625 0
0 0.0625 0
-0.09375 0.03125 0
-0.0625 0.03125 0
-0.09375 0 0
-0.0625 0 0
-0.03125 0.03125 0
0 0.03125 0
-0.03125 0 0
0 0 0
0.03125 0.46875 0
0.03125 0.5 0
0.0625 0.46875 0
0.0625 0.5 0
0.03125 0.4375 0
0.0625 0.4375 0
0.09375 0.46875 0
0.09375 0.5 0
0.125 0.46875 0
0.125 0.5 0
0.09375 0.4375 0
0.125 0.4375 0
0.03125 0.40625 0
0.0625 0.40625 0
0.03125 0.375 0
0.0625 0.375 0
0.09375 0.40625 0
0.125 0.40625 0
0.09375 0.375 0
0.125 0.375 0
0.15625 0.46875 0
0.15625 0.5 0
0.1875 0.46875 0
0.1875 0.5 0
0.15625 0.4375 0
0.1875 0.4375 0
0.21875 0.46875 0
0.21875 0.5 0
0.25 0.46875 0
0.25 0.5 0
0.21875 0.4375 0
0.25 0.4375 0
0.15625 0.40625 0
0.1875 0.40625 0
0.15625 0.375 0
0.1875 0.375 0
0.21875 0.40625 0
0.25 0.40625 0
0.21875 0.375 0
0.25 0.375 0
0.03125 0.34375 0
0.0625 0.34375 0
0.03125 0.3125 0
0.0625 0.3125 0
0.09375 0.34375 0
0.125 0.34375 0
0.09375 0.3125 0
0.125 0.3125 0
0.03125 0.28125 0
0.0625 0.28125 0
0.03125 0.25 0
0.0625 0.25 0
0.09375 0.28125 0
0.125 0.28125 0
0.09375 0.25 0
0.125 0.25 0
0.15625 0.34375 0
0.1875 0.34375 0
0.15625 0.3125 0
0.1875 0.3125 0
0.21875 0.34375 0
0.25 0.34375 0
0.21875 0.3125 0
0.25 0.3125 0
0.15625 0.28125 0
0.1875 0.28125 0
0.15625 0.25 0
0.1875 0.25 0
0.21875 0.28125 0
0.25 0.28125 0
0.21875 0.25 0
0.25 0.25 0
0.28125 0.46875 0
0.28125 0.5 0
0.3125 0.46875 0
0.3125 0.5 0
0.28125 0.4375 0
0.3125 0.4375 0
0.34375 0.46875 0
0.34375 0.5 0
0.375 0.46875 0
0.375 0.5 0
0.34375 0.4375 0
0.375 0.4375 0
0.28125 0.40625 0
0.3125 0.40625 0
0.28125 0.375 0
0.3125 0.375 0
0.34375 0.40625 0
0.375 0.40625 0
0.34375 0.375 0
0.375 0.375 0
0.40625 0.46875 0
0.40625 0.5 0
0.4375 0.46875 0
0.4375 0.5 0
0.40625 0.4375 0
0.4375 0.4375 0
0.46875 0.46875 0
0.46875 0.5 0
0.5 0.46875 0
0.5 0.5 0
0.46875 0.4375 0
0.5 0.4375 0
0.40625 0.40625 0
0.4375 0.40625 0
0.40625 0.375 0
0.4375 0.375 0
0.46875 0.40625 0
0.5 0.40625 0
0.46875 0.375 0
0.5 0.375 0
0.28125 0.34375 0
0.3125 0.34375 0
0.28125 0.3125 0
0.3125 0.3125 0
0.34375 0.34375 0
0.375 0.34375 0
0.34375 0.3125 0
0.375 0.3125 0
0.28125 0.28125 0
0.3125 0.28125 0
0.28125 0.25 0
0.3125 0.25 0
0.34375 0.28125 0
0.375 0.28125 0
0.34375 0.25 0
0.375 0.25 0
0.40625 0.34375 0
0.4375 0.34375 0
0.40625 0.3125 0
0.4375 0.3125 0
0.46875 0.34375 0
0.5 0.34375 0
0.46875 0.3125 0
0.5 0.3125 0
0.40625 0.28125 0
0.4375 0.28125 0
0.40625 0.25 0
0.4375 0.25 0
0.46875 0.28125 0
0.5 0.28125 0
0.46875 0.25 0
0.5 0.25 0
0.03125 0.21875 0
0.0625 0.21875 0
0.03125 0.1875 0
0.0625 0.1875 0
0.09375 0.21875 0
0.125 0.21875 0
0.09375 0.1875 0
0.125 0.1875 0
0.03125 0.15625 0
0.0625 0.15625 0
0.03125 0.125 0
0.0625 0.125 0
0.09375 0.15625 0
0.125 0.15625 0
0.09375 0.125 0
0.125 0.125 0
0.15625 0.21875 0
0.1875 0.21875 0
0.15625 0.1875 0
0.1875 0.1875 0
0.21875 0.21875 0
0.25 0.21875 0
0.21875 0.1875 0
0.25 0.1875 0
0.15625 0.15625 0
0.1875 0.15625 0
0.15625 0.125 0
0.1875 0.125 0
0.21875 0.15625 0
0.25 0.15625 0
0.21875 0.125 0
0.25 0.125 0
0.03125 0.09375 0
0.0625 0.09375 0
0.03125 0.0625 0
0.0625 0.0625 0
0.09375 0.09375 0
0.125 0.09375 0
0.09375 0.0625 0
0.125 0.0625 0
0.03125 0.03125 0
0.0625 0.03125 0
0.03125 0 0
0.0625 0 0
0.09375 0.03125 0
0.125 0.03125 0
0.09375 0 0
0.125 0 0
0.15625 0.09375 0
0.1875 0.09375 0
0.15625 0.0625 0
0.1875 0.0625 0
0.21875 0.09375 0
0.25 0.09375 0
0.21875 0.0625 0
0.25 0.0625 0
0.15625 0.03125 0
0.1875 0.03125 0
0.15625 0 0
0.1875 0 0
0.21875 0.03125 0
0.25 0.03125 0
0.21875 0 0
0.25 0 0
0.28125 0.21875 0
0.3125 0.21875 0
0.28125 0.1875 0
0.3125 0.1875 0
0.34375 0.21875 0
0.375 0.21875 0
0.34375 0.1875 0
0.375 0.1875 0
0.28125 0.15625 0
0.3125 0.15625 0
0.28125 0.125 0
0.3125 0.125 0
0.34375 0.15625 0
0.375 0.15625 0
0.34375 0.125 0
0.375 0.125 0
0.40625 0.21875 0
0.4375 0.21875 0
0.40625 0.1875 0
0.4375 0.1875 0
0.46875 0.21875 0
0.5 0.21875 0
0.46875 0.1875 0
0.5 0.1875 0
0.40625 0.15625 0
0.4375 0.15625 0
0.40625 0.125 0
0.4375 0.125 0
0.46875 0.15625 0
0.5 0.15625 0
0.46875 0.125 0
0.5 0.125 0
0.28125 0.09375 0
0.3125 0.09375 0
0.28125 0.0625 0
0.3125 0.0625 0
0.34375 0.09375 0
0.375 0.09375 0
0.34375 0.0625 0
0.375 0.0625 0
0.28125 0.03125 0
0.3125 0.03125 0
0.28125 0 0
0.3125 0 0
0.34375 0.03125 0
0.375 0.03125 0
0.34375 0 0
0.375 0 0
0.40625 0.09375 0
0.4375 0.09375 0
0.40625 0.0625 0
0.4375 0.0625 0
0.46875 0.09375 0
0.5 0.09375 0
0.46875 0.0625 0
0.5 0.0625 0
0.40625 0.03125 0
0.4375 0.03125 0
0.40625 0 0
0.4375 0 0
0.46875 0.03125 0
0.5 0.03125 0
0.46875 0 0
0.5 0 0
-0.5 -0.03125 0
-0.46875 -0.03125 0
-0.4375 -0.03125 0
-0.5 -0.0625 0
-0.46875 -0.0625 0
-0.4375 -0.0625 0
-0.40625 -0.03125 0
-0.375 -0.03125 0
-0.40625 -0.0625 0
-0.375 -0.0625 0
-0.5 -0.09375 0
-0.46875 -0.09375 0
-0.4375 -0.09375 0
-0.5 -0.125 0
-0.46875 -0.125 0
-0.4375 -0.125 0
-0.40625 -0.09375 0
-0.375 -0.09375 0
-0.40625 -0.125 0
-0.375 -0.125 0
-0.34375 -0.03125 0
-0.3125 -0.03125 0
-0.34375 -0.0625 0
-0.3125 -0.0625 0
-0.28125 -0.03125 0
-0.25 -0.03125 0
-0.28125 -0.0625 0
-0.25 -0.0625 0
-0.34375 -0.09375 0
-0.3125 -0.09375 0
-0.34375 -0.125 0
-0.3125 -0.125 0
-0.28125 -0.09375 0
-0.25 -0.09375 0
-0.28125 -0.125 0
-0.25 -0.125 0
-0.5 -0.15625 0
-0.46875 -0.15625 0
-0.4375 -0.15625 0
-0.5 -0.1875 0
-0.46875 -0.1875 0
-0.4375 -0.1875 0
-0.40625 -0.15625 0
-0.375 -0.15625 0
[...]
POINT_DATA 1089
SCALARS T float
LOOKUP_TABLE default
0
0
0
0
0
0
0
0
0
0
0
0
0
0
0
0
0
0
0
0
0
0
0
0
0
0
0
0
0
0
0
0
0
0
0
0
0
0
0
0
0
0
0
0
0
0
0
0
0
0
0
0
0
0
0
0
0
0
0
0
0
0
0
0
0
0
0
0
0
0
0
0
0
0
0
0
0
0
0
0
0
0
0
0
0
0
0
0
0
0
0
0
0
0
0
0
0
0
0
0
0
0
0
0
0
0
0
0
0
0
0
0
0
0
0
0
0
0
0
0
0
0
0
0
0
0
0
0
0
0
0
0
0
0
0
0
0
0
0
0
0
0
0
0
0
0
0
0
0
0
0
0
0
0
0
0
0
0
0
0
0
0
0
0
0
0
0
0
0
0
0
0
0
0
0
0
0
0
0
0
0
0
0
0
0
0
0
0
0
0
0
0
0
0
0
0
0
0
0
0
0
0
0
0
0
0
0
0
0.00706108
0
0
0.00267457
0.129325
0.0116457
0.0416547
0.382141
0.5355
0.0824479
0.45904
0.299395
0.792275
0.870437
0.993845
0.999941
1
0
0
0
0
0
0
0
0
0
0
0
0
0
0
0
0
0
0
0
0
0
0
0
0.0823453
0
0
0
0
5.13643e-06
0.296775
0.000278978
0.437076
0.0313243
0.00131523
0.485056
0.243996
0
0
0.0389491
0
0.953731
0.701946
1
0.959266
0.254382
0.00616724
0.588088
0.128822
0
0
0
0
0.000273841
0.311895
0
0.0892484
0
0
0
0
0
0
0
0
0
0
0
0
0
0
0
0
0
0
0
0
0
0
0
0
0
0
0
0
0
0
0
0
0
0
0
0
0
0
0
0
0
0
0
0
0
0
0
0
0
0
0
0
0
0
0
0
0
0
0
0
0
0
0
0
0
0
0
0
0
0
0
0
0
0
0
0
0
0
0
0
0
0
0
0
0
0
0
0
0
0
0
0
0
0
0
0
0
0
0
0
0
0
0
0
0
0
0
0
0
0
0
0
0
0
0
0
0
0
0
0
0
0
0
0
0
0
0
0
0
0
0
0
0
0
0
0
0
0
0
0
0
0
0
0
0
0
0
0
0
0
0
0
0.0173995
0.0538251
0.342313
0.546394
0.0364262
5.26759e-07
0.524631
0.476915
0.789338
0.992568
0.936797
1
0.988204
0.976915
1
1
0.000960371
0.000960371
0.469328
0.338263
0
0
0.107645
0
0.968368
0.829068
1
0.981534
0.360482
0.0110718
0.502609
0.0210757
0.799827
0.988206
0.331981
0.494512
0.992529
0.984637
0.494309
0.484637
0.00452661
0.00630663
0
0
0.00178002
0
0
0
0.972945
0.817801
0.473788
0.328875
0.346967
0.0100039
0.0971944
0
0.000843534
0.000843534
0
0
0
0
0
0
0
0
0
0
0
0
0
0
0
0
0
0
0
0
0
0
0
0
0
0
0
0
0
0
0
0
0
0
0
0
0
0
0
0
0
0
0
0
0
0
0
0
0
0
0
0
0
0
0
0
0
0
0
0
0
0
0
0
0
0
0
0
0
0
0
0
0
0
0
0
0
0.128413
0.0135949
0.372932
0
0
0
0
0
0
0.0915938
0.579579
0.185262
0.685262
0.590974
0.962561
0.859337
1
1
1
1
1
0.987985
1
1
1
1
1
1
1
0
0
0
0
0
0
0.200549
0.700549
0.12738
0.626915
0
0
0
0
0
0
0.0340934
0.451297
0
0.193188
1
1
0.999535
1
1
1
1
1
0.917204
1
0.679243
0.986055
1
1
1
1
1
1
1
1
0.86657
0.410576
0.993915
0.715265
1
1
1
1
1
0.924166
1
0.996822
0.0440066
0
0.22135
0
0
0
0
0
0.436846
0.0126807
0.550561
0.0537386
0
0
0
0
1
1
1
1
1
1
1
0.969214
1
1
1
1
1
0.818565
0.932354
0.532493
0.568941
0.0689412
0.498369
0.0291551
0
0
0
0
0.319837
0.00127171
0.100139
0
0
0
0
0
0
0
0
0
0
0
0
0.0255193
0
0
0
0
0
0
0
0
0
0
0
0
0.384843
0.859324
0.141372
0.587334
1
1
0.945962
1
0.018103
0.216454
0
0.0023891
0.53017
0.696367
0.0842083
0.196367
0
0
0
0
0
0
0
0
0
0
0
0
0
0
0
0
0
0
0
0
0
0
0
0
0
0
0
0
0
0
0
0
0
0
0
0
1
0.993995
0.998846
0.846523
0.709316
0.216108
0.380644
0.032967
0.662533
0.401668
0.163687
0.0491391
0.103683
0
0
0
0.000786983
0
0
0
0
0
0
0
0
0
0
0
0
0
0
0
0
0
0
0
0
0
0
0
0
0
0
0
0
0
0
0
0
0
0
0
0
0
0
0
0
0
0
0
0
0
0
0
0
0
0
0
0
0
0
0
0
0
0
0
0
0
0.00928155
0.040649
0
0
0
0
0
0
0
0
0
0
0.0313674
0
0
0
0
0
0
0.0903527
0.0276238
0.363757
0.339289
0.497398
0.825788
0.956749
0.0826165
0.578397
0.0592911
0.487026
0.99578
1
0.927735
0.942936
0.255913
0.00745161
0.5686
0.101507
0
0
0
0
0.68891
0.18891
0.553802
0.110866
0
0
0
0
0
0
0
0
0
0
0
0
0
0
0
0
0
0
0
0
0
0
0
0
0
0
0
0
0
0
0
0
0
0
0
0
0
0
0
0
0
0
0
0
0
0
0
0
0
0
0
0
0
0
0
0
0
0
0
0
0
0
0
0
0
0
0
0
0.00429837
0.182101
0
6.79268e-05
0.442843
0.459805
0.0151075
0.0168694
0
0
0
0
0
0
0
0
0.210777
0.0160108
0.00182982
0
0
0
0
0
0
0
0
0
0
0
0
0
0
0
0
0
0
0
0
0
0
0
0
0
0
0
0
0
0
0
0
0
0
0
0
0
0
0
0
0
0
0
0
0
0
0
0
0
0
0
0
0
0
0
0
0
0
0
0
0
0
0
0
0
0
0
0
0
0
0
0
0
0
0
0
0
0
0
0
0
0
0
0
0
0
0
0
0
0
0
0
0
0
0
0
0
0
0
0
0
0
0
0
0
0
0
0
0

SCALARS P float
LOOKUP_TABLE default
-0.0117527
-0.0122622
-0.0113788
-0.0118804
-0.0128385
-0.0124732
-0.0120638
-0.0125792
-0.0131389
-0.0134681
-0.0131587
-0.0141248
-0.0139202
-0.0137262
-0.0143143
-0.0123339
-0.0128522
-0.0134039
-0.0125729
-0.0130951
-0.0136515
-0.0139709
-0.0145268
-0.0142224
-0.0147795
-0.0147702
-0.0147145
-0.0154176
-0.0156432
-0.0148697
-0.0153717
-0.0159238
-0.0164343
-0.0161279
-0.0167856
-0.0157341
-0.0158623
-0.0150391
-0.0154741
-0.0152877
-0.0157074
-0.0157696
-0.0158625
-0.0159847
-0.0160719
-0.0127864
-0.013316
-0.0138912
-0.0129727
-0.0135141
-0.0141223
-0.0144892
-0.0150781
-0.0147702
-0.0154212
-0.0131218
-0.013679
-0.0143334
-0.013216
-0.0137895
-0.0144989
-0.0150533
-0.0157975
-0.0153098
-0.0161798
-0.0156171
-0.0160632
-0.0160256
-0.0165406
-0.0163619
-0.0164709
-0.0169009
-0.0170582
-0.016504
-0.0171393
-0.0170311
-0.017859
-0.0176094
-0.0178419
-0.0185055
-0.0188431
-0.0160173
-0.016712
-0.0154828
-0.0159616
-0.0157355
-0.0153074
-0.0146846
-0.0148686
-0.0138067
-0.0137857
-0.014661
-0.0139002
-0.015733
-0.0153644
-0.0159546
-0.0156277
-0.0148044
-0.0141157
-0.0151205
-0.0144744
-0.0129127
-0.0127713
-0.0120632
-0.0118851
-0.0130736
-0.0122318
-0.0112552
-0.0111071
-0.010539
-0.0104887
-0.0113653
-0.0105169
-0.0133222
-0.0124593
-0.0136815
-0.0127574
-0.0114957
-0.010461
-0.0116519
-0.0103634
-0.0163818
-0.016091
-0.0170115
-0.0167499
-0.0156189
-0.0149959
-0.0162934
-0.0156784
-0.0178504
-0.0176001
-0.0189195
-0.018648
-0.0171276
-0.016498
-0.0181228
-0.0174637
-0.0141791
-0.0131706
-0.0148415
-0.0137889
-0.0119003
-0.0102791
-0.012449
-0.0105725
-0.0156339
-0.0145819
-0.0166003
-0.0156666
-0.0133076
-0.0113082
-0.0146685
-0.012828
-0.0132288
-0.0138105
-0.0145744
-0.0131217
-0.0136923
-0.0144931
-0.0154891
-0.0165244
-0.0155128
-0.0167465
-0.012855
-0.0133831
-0.0141899
-0.0123823
-0.0128047
-0.013504
-0.0153043
-0.0167892
-0.0145988
-0.0162671
-0.0175716
-0.0187041
-0.0180432
-0.0196905
-0.0196343
-0.0201161
-0.0211072
-0.0217836
-0.018423
-0.020888
-0.0182437
-0.0223737
-0.0231019
-0.0241003
-0.0262534
-0.0277233
-0.0117355
-0.0120282
-0.0125688
-0.010894
-0.0109457
-0.0110118
-0.0136785
-0.0155811
-0.0116784
-0.0125481
-0.010043
-0.00986393
-0.00936016
-0.00928822
-0.00885111
-0.00770211
-0.00947497
-0.00899925
-0.0065073
-0.00410378
-0.0180134
-0.02433
-0.0148774
-0.0116241
-0.0285986
-0.0263491
0.00632831
0.0214705
-0.00715842
0.0144732
0.0020837
0.0242912
0.0471028
0.0594982
0.0445477
0.0471887
-0.020278
-0.0199189
-0.0220366
-0.021408
-0.019267
-0.018581
-0.0204258
-0.0196123
-0.0244641
-0.0232389
-0.0281706
-0.0255433
-0.0215879
-0.0205325
-0.0224204
-0.0210156
-0.0178443
-0.0173077
-0.0189653
-0.018856
-0.0170819
-0.0161593
-0.0199335
-0.0108615
-0.0199327
-0.0202544
-0.0205708
-0.0216011
-0.0221431
0.0164858
-0.0244118
0.0382595
-0.0282305
-0.0278748
0.015937
-0.00470928
-0.0228544
-0.0208101
-0.0179503
-0.0180235
0.0552388
0.0300309
0.0465789
0.0360253
-0.00165786
-0.0134844
0.0115095
-0.00690266
-0.020387
-0.0219156
-0.0177254
-0.0189302
-0.0260014
0.0177504
-0.0220444
-0.0120117
-0.0139098
-0.0142688
-0.00991594
-0.01028
-0.0154827
-0.0161705
-0.0111065
-0.0107633
-0.00989096
-0.0099734
-0.00934098
-0.00958004
-0.00969444
-0.0089397
-0.00890586
-0.00928035
-0.00866251
-0.00909626
-0.0083243
-0.00801483
-0.00940272
-0.00834385
-0.0089838
-0.00748091
-0.00742746
-0.00698378
-0.00605628
-0.00541977
-0.00861409
-0.009011
-0.00873164
-0.00902613
-0.00806456
-0.00836592
-0.00890157
-0.00909995
-0.00910236
-0.00920783
-0.00867535
-0.00900548
-0.00722823
-0.0078628
-0.00614722
-0.00735417
-0.00839005
-0.00892506
-0.00816518
-0.00897799
-0.00842937
-0.00623717
-0.00821383
-0.00520485
-0.00392083
-0.00286127
-0.00132388
0.000409516
-0.00849553
-0.00471054
-0.0100135
-0.00507032
0.00214544
0.00568836
0.00868503
0.0155179
-0.00447518
-0.00664619
-0.00307186
-0.00655981
-0.00787044
-0.00912095
-0.00804237
-0.00971766
-0.000876986
-0.00641992
0.00138813
-0.00842667
-0.00823401
-0.0105015
-0.00962104
-0.0118283
-0.00935812
-0.00937255
-0.00960744
-0.00955477
-0.00936923
-0.0096834
-0.00989916
-0.00977807
-0.0102047
-0.0100259
-0.0100382
-0.0103876
-0.00942572
-0.0098052
-0.00960726
-0.0100286
-0.0102156
-0.0105907
-0.0104665
-0.0108351
-0.0105388
-0.0103038
-0.0109023
-0.0106155
-0.0107634
-0.0111626
-0.0113024
-0.0109687
-0.0117527
-0.0113911
-0.011593
-0.0120638
-0.0109907
-0.0114078
-0.0112336
-0.0116464
-0.0118532
-0.0123339
-0.0120908
-0.0125729
-0.00989214
-0.0103511
-0.01046
-0.010873
-0.0107907
-0.0111222
-0.0112304
-0.0114696
-0.0111395
-0.0114827
-0.0121003
-0.0122404
-0.0117135
-0.011834
-0.012252
-0.0122138
-0.0114933
-0.0118801
-0.0117736
-0.0121078
-0.012309
-0.0127864
-0.0125056
-0.0129727
-0.0120467
-0.0123123
-0.012302
-0.0124805
-0.0126686
-0.0131218
-0.0127828
-0.013216
-0.0128399
-0.00230219
0.0236275
0.0510628
0.0198274
0.0262669
0.0558907
0.0571155
0.0847876
0.107636
0.111587
0.11461
0.0938226
0.0918692
0.103087
0.102324
0.00276401
-0.0116864
0.0529479
0.0291465
-0.0121859
-0.013829
-0.00583108
-0.0187383
0.109958
0.100199
0.118425
0.128344
0.0269404
-0.0224778
0.0522067
-0.021121
0.0919678
0.11203
0.0253895
0.0521494
0.0987228
0.0985636
0.0566792
0.0569209
-0.0149944
-0.00422
-0.00944259
-0.00279269
0.0168175
0.0184601
0.0105047
0.0121446
0.111968
0.098086
0.0517977
0.0283661
0.0271887
-0.0200643
-0.0054218
-0.0167598
-0.000255038
-0.00953358
0.00101118
-0.00490662
-0.0107109
-0.011598
-0.00678353
-0.00860232
-0.0134254
-0.0131832
-0.0160075
-0.014529
-0.01285
-0.0125929
-0.0135476
-0.0129391
-0.0181895
-0.0154956
-0.0177543
-0.0152142
-0.0139707
-0.0130761
-0.0137439
-0.0128436
-0.0125206
-0.0125918
-0.0126633
-0.0126097
-0.0128263
-0.0132288
-0.0127641
-0.0131217
-0.0126402
-0.0124837
-0.0123779
-0.0121751
-0.0125603
-0.012855
-0.0121822
-0.0123823
-0.0166283
-0.014449
-0.0143846
-0.0130386
-0.0131642
-0.0123501
-0.0121985
-0.0116162
-0.0113946
-0.0111691
-0.00928164
-0.00963031
-0.0109504
-0.0107126
-0.009814
-0.00984833
-0.0119167
-0.0117017
-0.0112869
-0.0110862
-0.0116465
-0.0117355
-0.0109648
-0.010894
-0.0105539
-0.0104063
-0.00984827
-0.00976684
-0.0102554
-0.010043
-0.00962212
-0.00928822
-0.00881486
-0.00827387
-0.00693874
-0.00889071
-0.00869958
-0.00836779
-0.00491286
0.000312817
-0.00717065
0.00597977
-0.00915546
-0.00929896
-0.00979974
-0.00910857
-0.0092445
-0.00980719
-0.00540446
0.016911
-0.000366958
0.0242323
0.00992827
0.0246158
0.0228334
0.0325482
0.0366746
0.0402918
0.0390334
0.040855
0.0359818
0.0394987
0.0398501
0.0417824
0.0421974
0.0430861
0.043462
0.0442304
-0.00886969
-0.00890687
-0.00943729
-0.00856784
-0.00863001
-0.00933784
0.000831773
0.0255602
-0.00325559
0.0211827
-0.00788728
-0.0076875
-0.00781047
-0.00714281
-0.00636704
-0.00499863
-0.00618326
0.0107774
-0.00317018
0.00401757
0.0403382
0.0420108
0.0391804
0.0407703
0.0435319
0.0442657
0.0426956
0.0434263
0.0288617
0.0353734
0.0141118
0.0259714
0.0400596
0.0415309
0.0366279
0.0401933
0.039626
0.0321009
0.0400605
0.035737
0.0173889
0.00129733
0.0275447
0.0146736
0.042427
0.040464
0.043546
0.0422396
0.0367449
0.0317629
0.0398595
0.0397265
-0.00638786
-0.0075647
-0.000561757
-0.00804993
-0.00823544
-0.00745239
-0.00732485
-0.00578359
0.0098061
-0.00933351
0.0176354
-0.00707973
-0.00745493
-0.00488448
-0.00638183
-0.00354449
0.0435963
0.0423895
0.0428897
0.0415506
0.0402283
0.0406453
0.0392335
0.0376935
0.0410095
0.0380023
0.0397222
0.0333637
0.0324352
0.02362
0.021283
0.00783188
0.0194691
-0.00518297
0.0151861
-0.00717535
-0.00479948
-0.00123971
-0.00510219
-0.00157427
0.00547303
-0.00678435
-0.000841527
-0.00399303
-0.00529
-0.00398043
-0.00476642
-0.00538059
-0.00701851
-0.00609515
-0.00429833
-0.00742924
-0.0067474
-0.00554876
-0.0023121
0.00132886
-0.00476129
-0.00277875
-0.00815037
-0.00782563
-0.00737603
-0.00898649
-0.00901704
-0.00917342
-0.00744284
-0.00749645
-0.00982735
-0.0110339
0.00733454
0.0244359
0.00119702
0.0237071
0.0411704
0.0450105
0.0499986
0.0569308
-0.00824543
4.4848e-05
-0.0130137
-0.0190483
0.0229609
0.0404351
-0.0155886
-0.00493824
-0.00972628
-0.00996018
-0.0103626
-0.0103972
-0.0107862
-0.0113479
-0.0110964
-0.0122486
-0.0121475
-0.0132286
-0.01094
-0.0114004
-0.0119939
-0.0113911
-0.0118804
-0.0124732
-0.0127356
-0.0136336
-0.0131587
-0.0139202
-0.0138317
-0.0179697
-0.0145237
-0.0168412
-0.0221764
-0.0242065
-0.0190943
-0.0202385
-0.0146444
-0.0160957
-0.0147145
-0.0156432
-0.0174311
-0.0180527
-0.0164343
-0.0167856
0.0444608
0.035262
0.057552
0.0395026
0.0163014
0.00147906
0.0101551
-0.00314849
0.0371082
0.0133837
-0.00938326
-0.0175746
-0.00624718
-0.0086988
-0.0159795
-0.011885
-0.00228041
-0.00367532
-0.00470795
-0.00527113
-0.00512638
-0.00635149
-0.00621901
-0.00729584
-0.00772261
-0.00735581
-0.0101422
-0.0092228
-0.00762153
-0.00825233
-0.0089186
-0.00907626
-0.0245173
-0.0206585
-0.0203996
-0.0183218
-0.0159009
-0.013089
-0.0155902
-0.0136195
-0.0180309
-0.0168369
-0.016712
-0.0159616
-0.015195
-0.0137766
-0.0148686
-0.0137857
-0.0114074
-0.0104083
-0.0121723
-0.0111722
-0.00984771
-0.00969724
-0.0104738
-0.0101033
-0.0125782
-0.0116348
-0.0127713
-0.0118851
-0.0108815
-0.010366
-0.0111071
-0.0104887
-0.00583882
-0.00171116
-0.00396913
-0.00098845
0.00509684
0.00640791
0.00273818
0.00394461
-0.00255046
0.000526536
-0.00113478
0.0021232
0.00310274
0.00456839
0.00389219
0.00380224
0.00105081
-0.00265885
0.0010305
-0.00190099
-0.00467426
-0.00668984
-0.00369864
-0.00565904
0.00137833
-0.00297311
-0.000109949
-0.00382231
-0.00434597
-0.00582642
-0.00440358
-0.00595865
0.00249303
0.0203373
0.00728445
0.0639456
0.0614636
0.0806597
0.140429
0.16194
0.0133356
0.0980375
0.00604635
0.0844575
0.166849
0.168337
0.162965
0.164302
0.0299154
-0.0140814
0.0838191
-0.00122997
-0.0115259
-0.00932432
-0.011664
-0.00955939
0.108709
0.0215737
0.0894629
0.00853831
-0.00624617
-0.00764625
-0.00866509
-0.00910499
-0.00775849
-0.00846044
-0.00684147
-0.00769657
-0.00890717
-0.00913923
-0.00827854
-0.00863537
-0.00669659
-0.00742419
-0.00682627
-0.00746831
-0.00797351
-0.00835465
-0.00794011
-0.00826789
-0.00926874
-0.00926134
-0.00887116
-0.00896819
-0.00917288
-0.00881486
-0.00902729
-0.00889071
-0.00864282
-0.00883002
-0.00852839
-0.00871846
-0.00903444
-0.00915546
-0.0089477
-0.00910857
-0.00862477
-0.00832905
-0.00901838
-0.00860346
-0.00831833
-0.00839064
-0.00848573
-0.00844962
-0.00828679
-0.00840725
-0.00898167
-0.00880408
-0.0084601
-0.00843378
-0.00866594
-0.00852231
-0.00851047
-0.00861967
-0.0084724
-0.00849382
-0.00878788
-0.00886969
-0.00857226
-0.00856784
-0.00838722
-0.00828212
-0.00836285
-0.00811666
-0.00817055
-0.00788728
-0.00778551
-0.00714281
-0.00664072
0.0260771
-0.00836552
-0.0105081
0.0740979
0.0758042
-0.0087806
-0.00828924
-0.00891301
-0.0101304
-0.00933488
-0.00992162
-0.0112121
-0.0112707
-0.0104329
-0.0104951
0.0283725
-0.00707436
-0.0108423
-0.010241
-0.00918588
-0.00923554
-0.00973827
-0.00946912
-0.0106463
-0.010057
-0.0102037
-0.00988876
-0.00974325
-0.00950193
-0.00968347
-0.00949906
-0.00967146
-0.00986099
-0.00986932
-0.00980617
-0.0100325
-0.0100308
-0.00977744
-0.00971115
-0.009977
-0.00973056
-0.0099734
-0.00958004
-0.00955203
-0.00942152
-0.00928035
-0.00909626
-0.00985907
-0.00967442
-0.00958763
-0.00948
-0.00955357
-0.00944882
-0.00942244
-0.00938776
-0.00931697
-0.00926651
-0.009011
-0.00902613
-0.00927013
-0.00930459
-0.00909995
-0.00920783
-0.00911657
-0.00895774
-0.00927572
-0.00909748
-0.00880412
-0.00863593
-0.00894369
-0.00878738
-0.00934141
-0.00920282
-0.00938266
-0.0092965
-0.00908832
-0.00897904
-0.0092386
-0.00919586
-0.00843459
-0.00814263
-0.00860146
-0.00834699
-0.00773379
-0.00701851
-0.00799047
-0.00742924
-0.00885271
-0.00868933
-0.00915309
-0.00910454
-0.00846398
-0.00815037
-0.00904108
-0.00898649
-0.00939687
-0.00937628
-0.00940231
-0.00944845
-0.00938631
-0.0094183
-0.00952894
-0.00963644
-0.00939131
-0.00950608
-0.00937255
-0.00955477
-0.00965855
-0.00983921
-0.00977807
-0.0100259
-0.00946354
-0.0095236
-0.00976782
-0.00992827
-0.0095986
-0.00972628
-0.0101251
-0.0103972
-0.0100488
-0.0102928
-0.0103038
-0.0106155
-0.0105796
-0.01094
-0.0109687
-0.0113788

SCALARS U float
LOOKUP_TABLE default
0.0263329
0.0277558
0.0268814
0.0286007
0.0289932
0.0303253
0.0259789
0.0271178
0.0280181
0.0298933
0.031767
0.0302562
0.0326306
0.0285658
0.0286279
0.0257903
0.0267305
0.0274017
0.0258119
0.0266194
0.0271409
0.0277189
0.0275914
0.027308
0.0270518
0.0298555
0.0325443
0.0284598
0.0309946
0.0280731
0.0268055
0.0260489
0.0278091
0.0230284
0.0237157
0.0248659
0.0225143
0.0269442
0.0257465
0.0263248
0.0251249
0.0240643
0.0220923
0.023528
0.0217063
0.026074
0.0268007
0.0272337
0.0265936
0.0272835
0.027684
0.0273088
0.02696
0.0277214
0.0273126
0.0273695
0.0280668
0.0284996
0.028369
0.0291304
0.0296861
0.0285687
0.0281499
0.0298952
0.0295612
0.0261442
0.0248628
0.0263954
0.0249491
0.0231942
0.0213161
0.0230461
0.0208978
0.027134
0.0254399
0.0284926
0.0264764
0.0231172
0.0204521
0.0235011
0.0200133
0.019829
0.0193299
0.016897
0.0152696
0.0200631
0.0178421
0.0147344
0.0123989
0.0135676
0.0110224
0.0161794
0.0152541
0.020077
0.0182843
0.0198795
0.0182914
0.0169652
0.0162766
0.0171742
0.0166884
0.0133604
0.0110007
0.0138238
0.0118219
0.0150764
0.0154672
0.0146521
0.0130295
0.0155254
0.0142684
0.0162057
0.0169714
0.0162639
0.0168064
0.0169281
0.0178167
0.0177345
0.0186924
0.0192345
0.0207868
0.0194534
0.0178605
0.0187586
0.0169225
0.0167954
0.0164501
0.0157148
0.0153782
0.017753
0.015378
0.0163993
0.0130966
0.013758
0.0131945
0.0107012
0.0095357
0.0169977
0.0184358
0.0162187
0.0183821
0.0207401
0.0235386
0.0220634
0.0271953
0.0141746
0.0170627
0.0102274
0.0133343
0.0226026
0.0316785
0.0203126
0.0326522
0.0295135
0.0304223
0.0312376
0.0306625
0.0318419
0.0331171
0.031763
0.0316896
0.0342357
0.0347419
0.0315852
0.0332106
0.0352265
0.0319691
0.0342261
0.0373168
0.0373738
0.0390019
0.0410505
0.0446382
0.0307065
0.0283254
0.034182
0.0314607
0.0243826
0.0196745
0.0260556
0.0195737
0.03952
0.0366106
0.0478064
0.045381
0.0289725
0.0199776
0.0338792
0.0209564
0.0314809
0.0345356
0.0390923
0.0296383
0.033332
0.0393764
0.0452072
0.0521517
0.0482236
0.0602514
0.0261764
0.0301183
0.0376245
0.0204278
0.0230754
0.0293004
0.0498611
0.0686032
0.0391709
0.0503126
0.0596555
0.0581851
0.0689519
0.0625411
0.0411073
0.0220501
0.0423871
0.0208202
0.0778601
0.0610986
0.0514828
0.0352982
0.0378612
0.0202574
0.0228899
0.0190834
0.0146882
0.00994973
0.012628
0.00581772
0.0063208
0.0039734
0.00048332
-0.0036492
0.0103264
0.000645224
0.00751651
-0.00616673
-0.00648943
-0.0118899
-0.0146582
-0.0195986
0.00337383
0.00466421
-0.00684699
-0.0102905
0.00871381
0.0157468
-0.0157732
-0.0231795
-0.0168607
-0.0243488
-0.0233877
-0.0302426
-0.0374647
-0.0548742
-0.0424361
-0.0590421
0.00299848
-0.016281
6.44297e-05
-0.0219407
-0.0261525
-0.0282469
-0.0380037
-0.0390796
0.00582809
-0.0137673
0.017231
0.0109568
-0.0404567
-0.0459998
-0.0083774
-0.0176619
-0.0264031
-0.0261888
-0.0274439
-0.0157981
-0.0304456
-0.0381518
-0.00834929
-0.0035216
-0.0265508
-0.00561203
-0.00770746
0.00812241
0.0114571
0.0269415
0.0250573
0.0416208
0.0161668
0.015228
0.0163595
0.0157464
0.0174671
0.0173693
0.0160676
0.0157853
0.0154166
0.0154679
0.0166164
0.0153452
0.0192727
0.0189329
0.0218324
0.0214075
0.0174992
0.0151193
0.0190474
0.0147922
0.0147861
0.0150982
0.0146261
0.0150151
0.0141809
0.0138603
0.0148582
0.0152379
0.0154859
0.015779
0.0141078
0.0148859
0.0130242
0.0125123
0.0110126
0.0102131
0.0128632
0.0139268
0.0108936
0.0125123
0.0257374
0.0256081
0.0319511
0.033151
0.0217666
0.0139595
0.02768
0.0144148
0.0415382
0.0464512
0.047744
0.0561303
0.0383073
0.0148847
0.041419
0.00687375
0.0072619
0.00638384
0.00181093
-0.000363393
0.00804992
0.0107052
0.00345932
0.00830118
-0.0068529
-0.0107787
-0.0172034
-0.0212887
-0.00305418
0.00598653
-0.0110305
0.00433278
0.016451
0.0166104
0.0176014
0.0176447
0.0160716
0.0174005
0.0189174
0.0188607
0.0203191
0.0202145
0.0188709
0.0203538
0.0154788
0.0170782
0.0146765
0.0166881
0.0187783
0.0203846
0.0187154
0.0204889
0.0217882
0.0216953
0.023298
0.023293
0.0218393
0.0232905
0.0248265
0.0250003
0.0263329
0.026693
0.0246838
0.0259789
0.0219203
0.0233448
0.0221043
0.0235267
0.0246458
0.0257903
0.0247691
0.0258119
0.0138059
0.0163837
0.0129019
0.0163113
0.018815
0.0207725
0.0192122
0.0213436
0.012673
0.01703
0.0136266
0.0189328
0.0202461
0.0223957
0.022118
0.0240215
0.0224715
0.0238959
0.0230961