# vtk DataFile Version 2.0
Gerris simulation version 1.3.2 (131206-155120)
ASCII
DATASET UNSTRUCTURED_GRID

POINTS 1089 float
-0.5 0.46875 0
-0.46875 0.46875 0
-0.5 0.5 0
-0.46875 0.5 0
-0.4375 0.46875 0
-0.4375 0.5 0
-0.5 0.4375 0
-0.46875 0.4375 0
-0.4375 0.4375 0
-0.40625 0.46875 0
-0.40625 0.5 0
-0.375 0.46875 0
-0.375 0.5 0
-0.40625 0.4375 0
-0.375 0.4375 0
-0.5 0.40625 0
-0.46875 0.40625 0
-0.4375 0.40625 0
-0.5 0.375 0
-0.46875 0.375 0
-0.4375 0.375 0
-0.40625 0.40625 0
-0.375 0.40625 0
-0.40625 0.375 0
-0.375 0.375 0
-0.34375 0.46875 0
-0.34375 0.5 0
-0.3125 0.46875 0
-0.3125 0.5 0
-0.34375 0.4375 0
-0.3125 0.4375 0
-0.28125 0.46875 0
-0.28125 0.5 0
-0.25 0.46875 0
-0.25 0.5 0
-0.28125 0.4375 0
-0.25 0.4375 0
-0.34375 0.40625 0
-0.3125 0.40625 0
-0.34375 0.375 0
-0.3125 0.375 0
-0.28125 0.40625 0
-0.25 0.40625 0
-0.28125 0.375 0
-0.25 0.375 0
-0.5 0.34375 0
-0.46875 0.34375 0
-0.4375 0.34375 0
-0.5 0.3125 0
-0.46875 0.3125 0
-0.4375 0.3125 0
-0.40625 0.34375 0
-0.375 0.34375 0
-0.40625 0.3125 0
-0.375 0.3125 0
-0.5 0.28125 0
-0.46875 0.28125 0
-0.4375 0.28125 0
-0.5 0.25 0
-0.46875 0.25 0
-0.4375 0.25 0
-0.40625 0.28125 0
-0.375 0.28125 0
-0.40625 0.25 0
-0.375 0.25 0
-0.34375 0.34375 0
-0.3125 0.34375 0
-0.34375 0.3125 0
-0.3125 0.3125 0
-0.28125 0.34375 0
-0.25 0.34375 0
-0.28125 0.3125 0
-0.25 0.3125 0
-0.34375 0.28125 0
-0.3125 0.28125 0
-0.34375 0.25 0
-0.3125 0.25 0
-0.28125 0.28125 0
-0.25 0.28125 0
-0.28125 0.25 0
-0.25 0.25 0
-0.21875 0.46875 0
-0.21875 0.5 0
-0.1875 0.46875 0
-0.1875 0.5 0
-0.21875 0.4375 0
-0.1875 0.4375 0
-0.15625 0.46875 0
-0.15625 0.5 0
-0.125 0.46875 0
-0.125 0.5 0
-0.15625 0.4375 0
-0.125 0.4375 0
-0.21875 0.40625 0
-0.1875 0.40625 0
-0.21875 0.375 0
-0.1875 0.375 0
-0.15625 0.40625 0
-0.125 0.40625 0
-0.15625 0.375 0
-0.125 0.375 0
-0.09375 0.46875 0
-0.09375 0.5 0
-0.0625 0.46875 0
-0.0625 0.5 0
-0.09375 0.4375 0
-0.0625 0.4375 0
-0.03125 0.46875 0
-0.03125 0.5 0
0 0.46875 0
0 0.5 0
-0.03125 0.4375 0
0 0.4375 0
-0.09375 0.40625 0
-0.0625 0.40625 0
-0.09375 0.375 0
-0.0625 0.375 0
-0.03125 0.40625 0
0 0.40625 0
-0.03125 0.375 0
0 0.375 0
-0.21875 0.34375 0
-0.1875 0.34375 0
-0.21875 0.3125 0
-0.1875 0.3125 0
-0.15625 0.34375 0
-0.125 0.34375 0
-0.15625 0.3125 0
-0.125 0.3125 0
-0.21875 0.28125 0
-0.1875 0.28125 0
-0.21875 0.25 0
-0.1875 0.25 0
-0.15625 0.28125 0
-0.125 0.28125 0
-0.15625 0.25 0
-0.125 0.25 0
-0.09375 0.34375 0
-0.0625 0.34375 0
-0.09375 0.3125 0
-0.0625 0.3125 0
-0.03125 0.34375 0
0 0.34375 0
-0.03125 0.3125 0
0 0.3125 0
-0.09375 0.28125 0
-0.0625 0.28125 0
-0.09375 0.25 0
-0.0625 0.25 0
-0.03125 0.28125 0
0 0.28125 0
-0.03125 0.25 0
0 0.25 0
-0.5 0.21875 0
-0.46875 0.21875 0
-0.4375 0.21875 0
-0.5 0.1875 0
-0.46875 0.1875 0
-0.4375 0.1875 0
-0.40625 0.21875 0
-0.375 0.21875 0
-0.40625 0.1875 0
-0.375 0.1875 0
-0.5 0.15625 0
-0.46875 0.15625 0
-0.4375 0.15625 0
-0.5 0.125 0
-0.46875 0.125 0
-0.4375 0.125 0
-0.40625 0.15625 0
-0.375 0.15625 0
-0.40625 0.125 0
-0.375 0.125 0
-0.34375 0.21875 0
-0.3125 0.21875 0
-0.34375 0.1875 0
-0.3125 0.1875 0
-0.28125 0.21875 0
-0.25 0.21875 0
-0.28125 0.1875 0
-0.25 0.1875 0
-0.34375 0.15625 0
-0.3125 0.15625 0
-0.34375 0.125 0
-0.3125 0.125 0
-0.28125 0.15625 0
-0.25 0.15625 0
-0.28125 0.125 0
-0.25 0.125 0
-0.5 0.09375 0
-0.46875 0.09375 0
-0.4375 0.09375 0
-0.5 0.0625 0
-0.46875 0.0625 0
-0.4375 0.0625 0
-0.40625 0.09375 0
-0.375 0.09375 0
-0.40625 0.0625 0
-0.375 0.0625 0
-0.5 0.03125 0
-0.46875 0.03125 0
-0.4375 0.03125 0
-0.5 0 0
-0.46875 0 0
-0.4375 0 0
-0.40625 0.03125 0
-0.375 0.03125 0
-0.40625 0 0
-0.375 0 0
-0.34375 0.09375 0
-0.3125 0.09375 0
-0.34375 0.0625 0
-0.3125 0.0625 0
-0.28125 0.09375 0
-0.25 0.09375 0
-0.28125 0.0625 0
-0.25 0.0625 0
-0.34375 0.03125 0
-0.3125 0.03125 0
-0.34375 0 0
-0.3125 0 0
-0.28125 0.03125 0
-0.25 0.03125 0
-0.28125 0 0
-0.25 0 0
-0.21875 0.21875 0
-0.1875 0.21875 0
-0.21875 0.1875 0
-0.1875 0.1875 0
-0.15625 0.21875 0
-0.125 0.21875 0
-0.15625 0.1875 0
-0.125 0.1875 0
-0.21875 0.15625 0
-0.1875 0.15625 0
-0.21875 0.125 0
-0.1875 0.125 0
-0.15625 0.15625 0
-0.125 0.15625 0
-0.15625 0.125 0
-0.125 0.125 0
-0.09375 0.21875 0
-0.0625 0.21875 0
-0.09375 0.1875 0
-0.0625 0.1875 0
-0.03125 0.21875 0
0 0.21875 0
-0.03125 0.1875 0
0 0.1875 0
-0.09375 0.15625 0
-0.0625 0.15625 0
-0.09375 0.125 0
-0.0625 0.125 0
-0.03125 0.15625 0
0 0.15625 0
-0.03125 0.125 0
0 0.125 0
-0.21875 0.09375 0
-0.1875 0.09375 0
-0.21875 0.0625 0
-0.1875 0.0625 0
-0.15625 0.09375 0
-0.125 0.09375 0
-0.15625 0.0625 0
-0.125 0.0625 0
-0.21875 0.03125 0
-0.1875 0.03125 0
-0.21875 0 0
-0.1875 0 0
-0.15625 0.03125 0
-0.125 0.03125 0
-0.15625 0 0
-0.125 0 0
-0.09375 0.09375 0
-0.0625 0.09375 0
-0.09375 0.0625 0
-0.0625 0.0625 0
-0.03125 0.09375 0
0 0.09375 0
-0.03125 0.0625 0
0 0.0625 0
-0.09375 0.03125 0
-0.0625 0.03125 0
-0.09375 0 0
-0.0625 0 0
-0.03125 0.03125 0
0 0.03125 0
-0.03125 0 0
0 0 0
0.03125 0.46875 0
0.03125 0.5 0
0.0625 0.46875 0
0.0625 0.5 0
0.03125 0.4375 0
0.0625 0.4375 0
0.09375 0.46875 0
0.09375 0.5 0
0.125 0.46875 0
0.125 0.5 0
0.09375 0.4375 0
0.125 0.4375 0
0.03125 0.40625 0
0.0625 0.40625 0
0.03125 0.375 0
0.0625 0.375 0
0.09375 0.40625 0
0.125 0.40625 0
0.09375 0.375 0
0.125 0.375 0
0.15625 0.46875 0
0.15625 0.5 0
0.1875 0.46875 0
0.1875 0.5 0
0.15625 0.4375 0
0.1875 0.4375 0
0.21875 0.46875 0
0.21875 0.5 0
0.25 0.46875 0
0.25 0.5 0
0.21875 0.4375 0
0.25 0.4375 0
0.15625 0.40625 0
0.1875 0.40625 0
0.15625 0.375 0
0.1875 0.375 0
0.21875 0.40625 0
0.25 0.40625 0
0.21875 0.375 0
0.25 0.375 0
0.03125 0.34375 0
0.0625 0.34375 0
0.03125 0.3125 0
0.0625 0.3125 0
0.09375 0.34375 0
0.125 0.34375 0
0.09375 0.3125 0
0.125 0.3125 0
0.03125 0.28125 0
0.0625 0.28125 0
0.03125 0.25 0
0.0625 0.25 0
0.09375 0.28125 0
0.125 0.28125 0
0.09375 0.25 0
0.125 0.25 0
0.15625 0.34375 0
0.1875 0.34375 0
0.15625 0.3125 0
0.1875 0.3125 0
0.21875 0.34375 0
0.25 0.34375 0
0.21875 0.3125 0
0.25 0.3125 0
0.15625 0.28125 0
0.1875 0.28125 0
0.15625 0.25 0
0.1875 0.25 0
0.21875 0.28125 0
0.25 0.28125 0
0.21875 0.25 0
0.25 0.25 0
0.28125 0.46875 0
0.28125 0.5 0
0.3125 0.46875 0
0.3125 0.5 0
0.28125 0.4375 0
0.3125 0.4375 0
0.34375 0.46875 0
0.34375 0.5 0
0.375 0.46875 0
0.375 0.5 0
0.34375 0.4375 0
0.375 0.4375 0
0.28125 0.40625 0
0.3125 0.40625 0
0.28125 0.375 0
0.3125 0.375 0
0.34375 0.40625 0
0.375 0.40625 0
0.34375 0.375 0
0.375 0.375 0
0.40625 0.46875 0
0.40625 0.5 0
0.4375 0.46875 0
0.4375 0.5 0
0.40625 0.4375 0
0.4375 0.4375 0
0.46875 0.46875 0
0.46875 0.5 0
0.5 0.46875 0
0.5 0.5 0
0.46875 0.4375 0
0.5 0.4375 0
0.40625 0.40625 0
0.4375 0.40625 0
0.40625 0.375 0
0.4375 0.375 0
0.46875 0.40625 0
0.5 0.40625 0
0.46875 0.375 0
0.5 0.375 0
0.28125 0.34375 0
0.3125 0.34375 0
0.28125 0.3125 0
0.3125 0.3125 0
0.34375 0.34375 0
0.375 0.34375 0
0.34375 0.3125 0
0.375 0.3125 0
0.28125 0.28125 0
0.3125 0.28125 0
0.28125 0.25 0
0.3125 0.25 0
0.34375 0.28125 0
0.375 0.28125 0
0.34375 0.25 0
0.375 0.25 0
0.40625 0.34375 0
0.4375 0.34375 0
0.40625 0.3125 0
0.4375 0.3125 0
0.46875 0.34375 0
0.5 0.34375 0
0.46875 0.3125 0
0.5 0.3125 0
0.40625 0.28125 0
0.4375 0.28125 0
0.40625 0.25 0
0.4375 0.25 0
0.46875 0.28125 0
0.5 0.28125 0
0.46875 0.25 0
0.5 0.25 0
0.03125 0.21875 0
0.0625 0.21875 0
0.03125 0.1875 0
0.0625 0.1875 0
0.09375 0.21875 0
0.125 0.21875 0
0.09375 0.1875 0
0.125 0.1875 0
0.03125 0.15625 0
0.0625 0.15625 0
0.03125 0.125 0
0.0625 0.125 0
0.09375 0.15625 0
0.125 0.15625 0
0.09375 0.125 0
0.125 0.125 0
0.15625 0.21875 0
0.1875 0.21875 0
0.15625 0.1875 0
0.1875 0.1875 0
0.21875 0.21875 0
0.25 0.21875 0
0.21875 0.1875 0
0.25 0.1875 0
0.15625 0.15625 0
0.1875 0.15625 0
0.15625 0.125 0
0.1875 0.125 0
0.21875 0.15625 0
0.25 0.15625 0
0.21875 0.125 0
0.25 0.125 0
0.03125 0.09375 0
0.0625 0.09375 0
0.03125 0.0625 0
0.0625 0.0625 0
0.09375 0.09375 0
0.125 0.09375 0
0.09375 0.0625 0
0.125 0.0625 0
0.03125 0.03125 0
0.0625 0.03125 0
0.03125 0 0
0.0625 0 0
0.09375 0.03125 0
0.125 0.03125 0
0.09375 0 0
0.125 0 0
0.15625 0.09375 0
0.1875 0.09375 0
0.15625 0.0625 0
0.1875 0.0625 0
0.21875 0.09375 0
0.25 0.09375 0
0.21875 0.0625 0
0.25 0.0625 0
0.15625 0.03125 0
0.1875 0.03125 0
0.15625 0 0
0.1875 0 0
0.21875 0.03125 0
0.25 0.03125 0
0.21875 0 0
0.25 0 0
0.28125 0.21875 0
0.3125 0.21875 0
0.28125 0.1875 0
0.3125 0.1875 0
0.34375 0.21875 0
0.375 0.21875 0
0.34375 0.1875 0
0.375 0.1875 0
0.28125 0.15625 0
0.3125 0.15625 0
0.28125 0.125 0
0.3125 0.125 0
0.34375 0.15625 0
0.375 0.15625 0
0.34375 0.125 0
0.375 0.125 0
0.40625 0.21875 0
0.4375 0.21875 0
0.40625 0.1875 0
0.4375 0.1875 0
0.46875 0.21875 0
0.5 0.21875 0
0.46875 0.1875 0
0.5 0.1875 0
0.40625 0.15625 0
0.4375 0.15625 0
0.40625 0.125 0
0.4375 0.125 0
0.46875 0.15625 0
0.5 0.15625 0
0.46875 0.125 0
0.5 0.125 0
0.28125 0.09375 0
0.3125 0.09375 0
0.28125 0.0625 0
0.3125 0.0625 0
0.34375 0.09375 0
0.375 0.09375 0
0.34375 0.0625 0
0.375 0.0625 0
0.28125 0.03125 0
0.3125 0.03125 0
0.28125 0 0
0.3125 0 0
0.34375 0.03125 0
0.375 0.03125 0
0.34375 0 0
0.375 0 0
0.40625 0.09375 0
0.4375 0.09375 0
0.40625 0.0625 0
0.4375 0.0625 0
0.46875 0.09375 0
0.5 0.09375 0
0.46875 0.0625 0
0.5 0.0625 0
0.40625 0.03125 0
0.4375 0.03125 0
0.40625 0 0
0.4375 0 0
0.46875 0.03125 0
0.5 0.03125 0
0.46875 0 0
0.5 0 0
-0.5 -0.03125 0
-0.46875 -0.03125 0
-0.4375 -0.03125 0
-0.5 -0.0625 0
-0.46875 -0.0625 0
-0.4375 -0.0625 0
-0.40625 -0.03125 0
-0.375 -0.03125 0
-0.40625 -0.0625 0
-0.375 -0.0625 0
-0.5 -0.09375 0
-0.46875 -0.09375 0
-0.4375 -0.09375 0
-0.5 -0.125 0
-0.46875 -0.125 0
-0.4375 -0.125 0
-0.40625 -0.09375 0
-0.375 -0.09375 0
-0.40625 -0.125 0
-0.375 -0.125 0
-0.34375 -0.03125 0
-0.3125 -0.03125 0
-0.34375 -0.0625 0
-0.3125 -0.0625 0
-0.28125 -0.03125 0
-0.25 -0.03125 0
-0.28125 -0.0625 0
-0.25 -0.0625 0
-0.34375 -0.09375 0
-0.3125 -0.09375 0
-0.34375 -0.125 0
-0.3125 -0.125 0
-0.28125 -0.09375 0
-0.25 -0.09375 0
-0.28125 -0.125 0
-0.25 -0.125 0
-0.5 -0.15625 0
-0.46875 -0.15625 0
-0.4375 -0.15625 0
-0.5 -0.1875 0
-0.46875 -0.1875 0
-0.4375 -0.1875 0
-0.40625 -0.15625 0
-0.375 -0.15625 0
[...]
POINT_DATA 1089
SCALARS T float
LOOKUP_TABLE default
0
0
0
0
0
0
0
0
0
0
0
0
0
0
0
0
0
0
0
0
0
0
0
0
0
0
0
0
0
0
0
0
0
0
0
0
0
0
0
0
0
0
0
0
0
0
0
0
0
0
0
0
0
0
0
0
0
0
0
0
0
0
0
0
0
0
0
0
0
0
0
0
0
0
0
0
0
0
0
0
0
0
0
0
0
0
0
0
0
0
0
0
0
0
0
0
0
0
0
0
0
0
0
0
0
0
0
0
0
0
0
0
0
0
0
0
0
0
0
0
0
0
0
0
0
0
0
0
0
0
0
0
0
0
0
0
0
0
0
0
0
0
0
0
0
0
0
0
0
0
0
0
0
0
0
0
0
0
0
0
0
0
0
0
0
0
0
0
0
0
0
0
0
0
0
0
0
0
0
0
0
0
0
0
0
0
0
0
0
0
0
0
0
0
0
0
0
0
0
0
0
0
0
0
0
0
0
0
0
0
0
0
0
0
0
0
0
0
0
0
0
0
0.000137416
0
0.0419861
0
0
0
0
0
0
0
0
0
0
0
0
0
0
0.00417727
0.0756335
0
0
0
0
0
0
0
0
0
0
0.187737
0.222457
0
0
0.14614
0.0399636
0
0.049973
0.0400513
0.326838
0.266898
0.538381
0.749535
0.962748
0.229586
0.716262
0.481383
0.939397
0.986814
1
1
1
0.687737
0.722457
1
1
0.645105
0.444421
0.998965
0.904457
1
1
1
1
1
1
1
1
0
0
0
0
0
0
0
0
0
0
0
0
0
0
0
0
0
0
0
0
0
0
0
0
0
0
0
0
0
0
0
0
0
0
0
0
0
0
0.0014967
0.0393209
0
0
0
0
0
0
0
0
0
0
0
0
0
0
0
0
0
0.0175761
0
0.152623
0.202623
0.472871
0.586173
0.93355
0
0.326908
0
0.347421
0.826908
1
0.847421
1
0
0
0
0
0
0
0
0
0
0
0
0
0
0
0.0796587
0.0451338
0
0
0.00329935
0
0
0
0
0
0
0
0
0
0
0
0
0
0
0
0
0
0
0
0
0
0.579659
0.490794
1
0.94566
0.222301
0.0233415
0.623226
0.177566
1
1
1
1
0.864548
0.364548
0.883985
0.383985
0
0
0
0
0
0
0
0
0
0
0
0
0
0
0
0
0
0
0
0
0
0
0
0
0
0
0
0
0
0
0
0
0
0.18803
0
0.0324692
0.66171
0.97368
0.269506
0.576216
0
0
0
0
0.0133569
0.102537
0
0
0.164919
0.0094271
0.584819
0.180507
0
0
0.00117988
0
0.9199
0.499372
1
0.754724
0.0794716
0
0.254724
0
0
0
0
0
0
0
0
0
0
0
0
0
0
0
0
0.00276548
1
0.978133
0.681946
0.591429
0.698141
0.220008
0.295009
0.0463461
0.181946
0.113296
0
0
0.0205296
0
0
0
0
0
0
0
0
0
0
0
0
0
0
0
0
0
0
0
0
0
0
0
0
0
0
0
0.00206694
0.0195048
0.175125
0.439797
0.0238906
0.00645271
0.485024
0.255687
0
0
0
0
0
0
0
0
0
0
0.0381012
0
0
0
0
0
0
0
0
0
0
0
0
0
0
0
0
0
0
0
0
0
0
0
0
0
0
0
0
0
0
0.138996
0
0.207975
0
0
0
0
0
0.194732
0
0.103576
0
0
0
0
0
0
0
0
0
0
0
0
0
0
0
0
0
0
0
0
0
0
0
0
0
0.0196722
0
0
0
0
0
0
0
0
0
0
0.638996
1
0.707975
1
1
1
1
1
0.694732
1
0.597728
0.994153
1
1
1
1
1
1
1
1
1
1
1
1
1
1
1
1
1
1
1
1
0.405327
0.885655
0.148935
0.588989
1
1
0.940054
1
0.00743303
0.204111
0
0.00662486
0.571131
0.850723
0.131078
0.351005
1
1
1
1
1
1
1
0.995511
0.97627
0.997297
0.495703
0.527371
0.938464
0.749517
0.449387
0.254006
0
0
0
0
0
0
0
0
0
0
0
0
0
0
0
0
0
0
0
0
0
0
0
0
0
0
0
0
0
0
0
0
0
0
0
0
0
0
0
0
0
0
0
0
0
0
0
0
0
0
0
0
0
0
0
0
0
0
0
0
0
0
0
0
0
0
0
0
0
0
0
0
0
0
0
0
0
0.00028269
0
0
0
0
0
0
0
0
0
0
0.0194333
0.0300739
0
0
0.0109233
0
0
0
0
0
0
0
0
0
0
0
0
0
0
0
0
0
0
0
0
0
0
0
0
0
0
0
0
0
0
0
0
0
0
0
0
0
0
0
0
0
0
0
1
0.905356
1
0.969893
0.405356
0
0.469893
0
1
0.954588
1
0.857755
0.454588
0
0.357755
0
0
0
0
0
0
0.0627582
0
0.104339
0
0
0
0
0
0.04435
0
3.76488e-06
0.992851
0.668861
0.826173
0.362536
0.17601
0
0.0318737
0
0.396162
0.0878111
0.0628401
0
0
0
0
0
0
0
0
0
0
0
0
0
0
0
0
0
0
0
0
0
0.483051
0.920292
0.604194
0.999855
0.961134
0.636026
1
0.75676
0.400947
0.807074
0.106746
0.307219
0.852917
0.53307
0.352917
0.1631
0.174892
0
0.25676
0
0
0
0
0
0.13063
0
0.0106601
0
0
0
0
0
0
0
0
0
0
0
0
0
0
0
0
0
0
0
0
0
0
0
0
0
0
0
0
0
0
0
0
0
0
0
0
0
0
0
0
0
0
0
0
0
0
0
0
0
0
0
0
0
0
0
0
0
0
0
0
0
0
0
0
0
0
0
0
0
0
0
0
0
0
0
0
0
0
0
0
0
0
0
0
0
0
0
0
0
0
0
0
0
0
0
0
0
0
0
0
0
0
0
0
0
0
0
0
0
0
0
0
0
0
0
0
0
0
0
0
0
0
0
0
0
0
0
0
0
0
0
0
0
0
0
0
0
0
0
0
0
0
0
0
0
0
0
0
0
0
0
0
0
0
0
0
0
0
0
0
0
0
0
0
0

SCALARS P float
LOOKUP_TABLE default
-0.0108975
-0.0109229
-0.0108744
-0.0109012
-0.0109598
-0.0109398
-0.0109111
-0.0109341
-0.0109688
-0.0110084
-0.0109902
-0.0110685
-0.0110526
-0.0110155
-0.0110738
-0.0109144
-0.0109337
-0.0109659
-0.0109035
-0.0109202
-0.0109505
-0.0110108
-0.011068
-0.0109942
-0.0110509
-0.0111401
-0.0111272
-0.0112218
-0.0112131
-0.0111433
-0.0112228
-0.0113121
-0.011309
-0.0114079
-0.011412
-0.0113103
-0.0114029
-0.0111369
-0.0112161
-0.0111204
-0.0112015
-0.0113039
-0.0113973
-0.0112925
-0.0113907
-0.0108843
-0.0108954
-0.0109223
-0.0108425
-0.0108522
-0.0108782
-0.0109647
-0.0110215
-0.0109204
-0.0109778
-0.0107742
-0.0107892
-0.010817
-0.0107084
-0.0107198
-0.0107444
-0.0108597
-0.010918
-0.0107843
-0.0108409
-0.0110926
-0.0111773
-0.0110515
-0.0111413
-0.0112745
-0.0113817
-0.0112473
-0.0113676
-0.0109943
-0.01109
-0.0109181
-0.0110188
-0.0112067
-0.011344
-0.0111469
-0.0113043
-0.0115052
-0.0115183
-0.0115988
-0.011622
-0.0114965
-0.0115861
-0.0116821
-0.0117157
-0.0117483
-0.0117912
-0.0116655
-0.0117285
-0.0114923
-0.0115836
-0.0114922
-0.0115914
-0.0116653
-0.0117305
-0.0116815
-0.0117548
-0.0117906
-0.0118397
-0.0118045
-0.0118557
-0.0117689
-0.0117826
-0.0117882
-0.0118366
-0.0117425
-0.011784
-0.0117678
-0.0117252
-0.011773
-0.0117882
-0.0118036
-0.0118222
-0.0117739
-0.011731
-0.0118075
-0.0117608
-0.0114952
-0.0116088
-0.0114991
-0.011635
-0.0117148
-0.0118032
-0.0117662
-0.011879
-0.0115002
-0.0116679
-0.0114923
-0.0117032
-0.0118368
-0.0119876
-0.0119269
-0.0121357
-0.0118636
-0.0118878
-0.0119583
-0.0119917
-0.0118712
-0.0118164
-0.0119716
-0.0119023
-0.0120971
-0.0121453
-0.0122938
-0.0123669
-0.0121182
-0.0120236
-0.0123278
-0.0121908
-0.0106232
-0.0106329
-0.0106542
-0.0105287
-0.0105348
-0.0105498
-0.0106902
-0.010743
-0.0105781
-0.0106227
-0.0104306
-0.0104285
-0.0104331
-0.0103169
-0.0103093
-0.0103029
-0.0104489
-0.0104786
-0.0103024
-0.0103105
-0.0108182
-0.010921
-0.0106907
-0.0107899
-0.0110589
-0.0112372
-0.0109327
-0.0111295
-0.0105307
-0.0106151
-0.0103361
-0.0103905
-0.0107502
-0.0109529
-0.0104998
-0.0106866
-0.0101991
-0.0101861
-0.0101668
-0.0100691
-0.0100592
-0.0100295
-0.0101453
-0.010123
-0.0099846
-0.00992469
-0.00998088
-0.00995971
-0.00991209
-0.00983104
-0.00985047
-0.00980762
-0.00983888
-0.0097361
-0.00971698
-0.00957833
-0.0101077
-0.0101094
-0.00985453
-0.00977854
-0.0101573
-0.0102702
-0.00972021
-0.00967934
-0.00960151
-0.00942934
-0.00938496
-0.00912413
-0.00921843
-0.00892979
-0.00876583
-0.00590882
-0.0114635
-0.0117319
-0.0113995
-0.0117412
-0.0120362
-0.0123367
-0.0121585
-0.0125982
-0.0112621
-0.011691
-0.0110223
-0.0115487
-0.0122798
-0.0129548
-0.0120924
-0.00837437
-0.0125749
-0.0126904
-0.0129713
-0.0131629
-0.0126295
-0.0124187
-0.0130609
-0.0127243
-0.0135633
-0.0138857
-0.00169066
0.00030002
-0.0137043
-0.0131359
-0.00478618
-0.0111192
-0.0105537
-0.00805533
-0.00744622
0.0089052
0.00460165
0.0212521
0.0340387
0.047761
0.00398022
0.0314046
0.0182014
0.0433571
0.0473858
0.0490276
0.0475422
0.0483439
0.0310299
0.0334346
0.0508153
0.0511966
0.0281028
0.014807
0.0509902
0.0440741
0.0496383
0.0499134
0.0488396
0.0490161
0.0497452
0.0491423
0.0488164
0.0482393
-0.0116723
-0.0117042
-0.0115833
-0.0116047
-0.0116589
-0.011574
-0.0114827
-0.0114947
-0.0113767
-0.011381
-0.0114765
-0.0113728
-0.0116637
-0.0115773
-0.0116875
-0.0115944
-0.0114776
-0.0113718
-0.011487
-0.0113753
-0.0112703
-0.0112697
-0.0111694
-0.011166
-0.0112659
-0.0111634
-0.0110767
-0.0110735
-0.0109954
-0.010995
-0.0110667
-0.0109752
-0.0112591
-0.0111512
-0.0112523
-0.0111362
-0.0110394
-0.0109131
-0.0108398
-0.00640502
-0.0117305
-0.0116239
-0.0117953
-0.0116679
-0.0115031
-0.0113831
-0.0115291
-0.0114025
-0.0118808
-0.0117175
-0.0119909
-0.0117729
-0.0115471
-0.0113984
-0.0115594
-0.0113794
-0.0112503
-0.00897299
-0.0112689
0.00734718
0.0131405
0.0450903
0.0590376
0.100079
-0.0112468
0.0283748
-0.011213
0.0310067
0.0879911
0.108088
0.0906958
0.108267
-0.0109415
-0.0109376
-0.010922
-0.0109045
-0.0109241
-0.0109267
-0.010904
-0.0108789
-0.0108875
-0.0108602
-0.0109194
-0.0109064
-0.0108632
-0.0109167
-0.00186941
-0.00592953
-0.0109396
-0.0109325
-0.0106404
-0.01095
-0.0108812
-0.010852
-0.0108766
-0.0108497
-0.0109027
-0.0108947
-0.0108823
-0.010857
-0.0108975
-0.0108736
-0.0108986
-0.0109111
-0.0109274
-0.0109095
-0.0109347
-0.0109068
-0.0109075
-0.0109144
-0.0109005
-0.0109035
0.0575652
0.0467943
0.108093
0.101464
0.0147852
-0.0085172
0.062224
0.00935602
0.108175
0.108356
0.108322
0.108441
0.0912317
0.0316081
0.0937355
0.0341604
-0.0109757
-0.0109165
-0.0109703
-0.0108891
-0.0108914
-0.0108843
-0.0108527
-0.0108425
-0.0107836
-0.0107746
-0.0106782
-0.0107081
-0.0107682
-0.0107742
-0.0107011
-0.0107084
-0.0121259
-0.0118241
-0.0122864
-0.0118632
-0.0115507
-0.0113141
-0.0115076
-0.0112058
-0.0124466
-0.0118513
-0.0125939
-0.011748
-0.0114043
-0.0110678
-0.0111839
-0.0108213
-0.0111262
0.0121048
-0.0109947
-0.00664144
0.068993
0.105599
0.0221788
0.0587706
-0.0108604
-0.010668
-0.0106223
-0.0104992
-0.00884479
0.00204674
-0.0104871
-0.0105406
-0.00228455
-0.0108473
0.0234531
-0.000284684
-0.0107428
-0.0104308
-0.00996296
-0.00984761
0.0432285
0.0184505
0.0472903
0.0325714
-0.00491526
-0.00910908
0.00517323
-0.00832996
-0.0102893
-0.0102345
-0.00983842
-0.00988824
-0.0102556
-0.0103423
-0.00998215
-0.0101286
-0.00931732
-0.00950633
-0.00878118
-0.00912001
-0.00970508
-0.00995804
-0.00944967
-0.00927099
0.108523
0.105988
0.0711131
0.0599829
0.0719739
0.0149669
0.0242932
-0.00527178
0.0114847
0.00293701
-0.0105701
-0.0106128
-0.00821949
-0.0105487
-0.0106036
-0.0104852
-0.0106335
-0.0106338
-0.0105561
-0.0105405
-0.0106196
-0.0106232
-0.0105304
-0.0105287
-0.0104931
-0.0104638
-0.0103844
-0.0103582
-0.0104418
-0.0104306
-0.0103304
-0.0103169
-0.010427
-0.0105116
-0.0102927
-0.0105158
-0.0105688
-0.0104017
-0.0107155
-0.0103455
-0.00984408
-0.00726738
0.0214497
0.0687843
-0.0068366
-0.00913094
0.0762438
0.0351006
-0.0102499
-0.0102463
-0.0100174
-0.0100802
-0.0102113
-0.0101991
-0.0100585
-0.0100691
-0.00980465
-0.0100107
-0.0029561
-0.00949218
-0.00996887
-0.00998088
-0.00970192
-0.00983104
-0.00986446
-0.00984668
-0.00977328
-0.0100015
-0.0099042
-0.00979039
-0.00965402
-0.00948264
-0.00964676
-0.00945715
-0.0100213
-0.00993152
-0.00982307
-0.0100706
-0.0099896
-0.00989234
-0.00968343
-0.00950134
-0.0097694
-0.00961409
-0.00924549
-0.00892248
-0.00920086
-0.00885275
-0.00846805
-0.000273303
-0.00836121
0.00349265
-0.00925696
-0.00893075
-0.00941122
-0.00915319
-0.0084709
0.00272954
-0.0087985
-0.00249884
-0.0101155
-0.0100559
-0.00998162
-0.0101862
-0.0101451
-0.0100942
-0.00988752
-0.00977147
-0.0100323
-0.00996097
-0.0102617
-0.01024
-0.0102139
-0.0103488
-0.0103423
-0.0103366
-0.0101849
-0.0101575
-0.0103346
-0.0103421
-0.00962569
-0.00944923
-0.00988048
-0.00979414
-0.00922134
-0.00771943
-0.00971331
-0.00964028
-0.0101388
-0.0101375
-0.010368
-0.0104223
-0.0101866
-0.0102987
-0.0105354
-0.010723
0.0267354
0.0463142
0.0304465
0.0462907
0.0472351
0.0479346
0.0471417
0.0477949
0.0298228
0.0464403
0.0246932
0.046523
0.0472688
0.0478993
0.0476168
0.0482508
0.0483553
0.048476
0.0481724
0.0482628
0.0482533
0.0476845
0.048032
0.0474744
0.0482629
0.0483448
0.0486271
0.0487241
0.0481123
0.0475616
0.0485032
0.0479706
0.0140891
0.0411261
-0.00102776
0.0246114
0.0481274
0.0488349
0.0455307
0.0497196
-0.0100709
0.0014889
-0.0110707
-0.0111539
0.0237467
0.0415313
-0.00389977
0.00963025
0.04926
0.0493977
0.0501822
0.0503787
0.0492077
0.0487233
0.0502722
0.0495597
0.0499373
0.0514915
0.0188447
0.0208691
0.0475326
0.034768
0.015665
0.00297506
-0.010436
-0.0104423
-0.0104535
-0.0105226
-0.010538
-0.0105613
-0.0104733
-0.0105075
-0.0105961
-0.0106475
-0.0106034
-0.0106252
-0.010657
-0.0106769
-0.0107027
-0.0107395
-0.0107017
-0.0107635
-0.0107896
-0.0108562
-0.0105653
-0.0106564
-0.0107231
-0.0108306
-0.0108051
-0.0110245
-0.0109864
-0.0111986
-0.0108482
-0.0109614
-0.0109433
-0.0110545
-0.0111134
-0.0113084
-0.0111953
-0.0113669
-0.0107412
-0.0107692
-0.0108086
-0.0107957
-0.0108244
-0.0108646
-0.0108612
-0.0109291
-0.0109175
-0.0109845
-0.0108398
-0.0108682
-0.0109081
-0.0108736
-0.0109012
-0.0109398
-0.0109601
-0.011025
-0.0109902
-0.0110526
-0.0110149
-0.0111205
-0.0110669
-0.0111655
-0.0112484
-0.0113979
-0.0112807
-0.0114107
-0.0111035
-0.0111952
-0.0111272
-0.0112131
-0.0112995
-0.011414
-0.011309
-0.011412
-0.0113676
-0.0118453
-0.0114951
-0.0118734
-0.0125337
-0.013307
-0.0123518
-0.0128723
-0.0115585
-0.0118566
-0.0115731
-0.0118053
-0.0121946
-0.0125309
-0.0120511
-0.0122818
-0.012482
-0.0119985
-0.013222
-0.0133811
-0.0132013
-0.013371
-0.0132727
-0.0128852
-0.0127576
-0.0128529
-0.012437
-0.0124981
-0.0127774
-0.0125347
-0.0124435
-0.0122787
-0.0115681
-0.0117509
-0.0115527
-0.0116992
-0.0119336
-0.0120959
-0.0118395
-0.0119592
-0.0115349
-0.0116557
-0.0115183
-0.011622
-0.0117676
-0.0118599
-0.0117157
-0.0117912
-0.012204
-0.0122441
-0.0120379
-0.0120657
-0.0122044
-0.0120898
-0.0120357
-0.0119517
-0.0119198
-0.01194
-0.0118397
-0.0118557
-0.0119167
-0.0118521
-0.0118366
-0.011784
0.0467804
0.0403525
0.0466021
0.0436238
0.0135156
-0.00777619
0.0169911
-0.00755362
0.0466931
0.042932
0.0470752
0.0381178
0.0162069
-0.00764183
0.0109916
-0.00805477
-0.00839184
-0.00888729
-0.00824479
-0.0088638
-0.00939859
0.00172029
-0.0095628
0.00912739
-0.00831957
-0.00893073
-0.0086088
-0.00908596
-0.00961905
-0.00202036
-0.00957984
-0.0100645
0.0473509
0.0281938
0.0383571
0.0107415
0.000773528
-0.0087609
-0.00786014
-0.00953765
0.0123834
-0.00588834
-0.00863511
-0.0116362
-0.0104513
-0.0101841
-0.0110356
-0.0106681
-0.00907139
-0.00934755
-0.00959739
-0.00969281
-0.00963818
-0.00990597
-0.00982729
-0.00996304
-0.0100701
-0.0100373
-0.0104585
-0.0103438
-0.0100588
-0.0101057
-0.0102909
-0.0102767
0.0778784
0.157033
0.101069
0.1731
0.163697
0.103662
0.172028
0.126454
0.0640175
0.138151
0.00956365
0.0462847
0.145301
0.0864719
0.0543677
0.0195538
0.0209423
-0.00962226
0.0354325
-0.0102392
-0.0098133
-0.00986446
-0.0101323
-0.0100015
0.013179
-0.0101936
-0.00833155
-0.0101816
-0.0101159
-0.0100213
-0.0101408
-0.0100706
-0.0101106
-0.0100426
-0.0100763
-0.0100758
-0.00995443
-0.0101341
-0.010067
-0.0101726
-0.010156
-0.0101722
-0.0102798
-0.0102825
-0.0101851
-0.0102389
-0.0102909
-0.0103184
-0.0102157
-0.0101795
-0.0102312
-0.0102236
-0.01016
-0.0101155
-0.0102145
-0.0101862
-0.0102751
-0.0102767
-0.0103428
-0.0103489
-0.0102753
-0.0102617
-0.010352
-0.0103488
-0.0125742
-0.0118324
-0.0123705
-0.0118665
-0.0113236
-0.010968
-0.0114698
-0.0111596
-0.0121972
-0.0118405
-0.0120456
-0.0117886
-0.0115311
-0.0112714
-0.0115483
-0.0113342
-0.0107369
-0.0105876
-0.0109352
-0.0107748
-0.0104957
-0.0104444
-0.0106636
-0.0105905
-0.0110682
-0.0109123
-0.0111556
-0.0110107
-0.0107962
-0.010713
-0.0108968
-0.0108104
-0.0119236
-0.0117326
-0.0118277
-0.0116807
-0.0115432
-0.0113663
-0.0115282
-0.0113799
-0.0117554
-0.0116374
-0.0117042
-0.0116047
-0.0115106
-0.0113832
-0.0114947
-0.011381
-0.0112109
-0.011079
-0.0112441
-0.0111243
-0.0109709
-0.0108855
-0.0110227
-0.0109401
-0.0112622
-0.0111521
-0.0112697
-0.011166
-0.0110561
-0.0109766
-0.0110735
-0.010995
-0.0104164
-0.0104012
-0.0105428
-0.0105138
-0.0103972
-0.0104062
-0.0104988
-0.0104956
-0.0106542
-0.0106152
-0.0107466
-0.0107022
-0.0105913
-0.0105798
-0.010673
-0.0106563
-0.0104189
-0.0104248
-0.0104998
-0.0105042
-0.010431
-0.010436
-0.0105119
-0.0105226
-0.0105776
-0.0105803
-0.0106499
-0.0106512
-0.0105889
-0.0106034
-0.0106601
-0.0106769
-0.0108206
-0.0107743
-0.0108765
-0.0108314
-0.0107424
-0.0107228
-0.0107995
-0.0107789
-0.0109159
-0.0108747
-0.0109376
-0.0109045
-0.0108447
-0.0108244
-0.0108789
-0.0108602
-0.0107141
-0.0107142
-0.0107693
-0.0107687
-0.0107232
-0.0107412
-0.0107773
-0.0107957
-0.0108149
-0.0108135
-0.010852
-0.0108497
-0.0108217
-0.0108398
-0.010857
-0.0108744

SCALARS U float
LOOKUP_TABLE default
0.0204282
0.0204359
0.0201111
0.0201366
0.0204439
0.020167
0.0207349
0.0207159
0.0206964
0.0204542
0.0201978
0.0204652
0.0202269
0.0206799
0.0206658
0.0209985
0.0209545
0.0209082
0.0211872
0.0211253
0.0210588
0.0208637
0.0208215
0.0209903
0.0209204
0.0204756
0.0202528
0.0204819
0.020273
0.0206529
0.0206373
0.0204805
0.0202854
0.0204676
0.0202889
0.0206145
0.0205796
0.0207811
0.0207388
0.0208506
0.0207785
0.0206905
0.0206307
0.0207013
0.0206147
0.0212873
0.0212199
0.0211412
0.0213239
0.0212493
0.0211579
0.0210519
0.0209533
0.0210452
0.0209128
0.021299
0.0212259
0.0211195
0.0212216
0.0211623
0.0210366
0.0209755
0.0207992
0.0208517
0.0206201
0.0208504
0.0207435
0.0207696
0.0206196
0.0206326
0.0205164
0.0204672
0.020315
0.0206042
0.0203988
0.0203603
0.0200835
0.0201913
0.0199899
0.0197997
0.0195208
0.0204408
0.0202836
0.0203988
0.0202715
0.0205284
0.0204579
0.0203431
0.0202577
0.0202759
0.0202452
0.0203681
0.020261
0.0205548
0.0204598
0.0205153
0.0204014
0.0203451
0.0202131
0.0202731
0.0201336
0.0201998
0.0202352
0.0201171
0.0202249
0.0201404
0.0200114
0.0200273
0.0202043
0.0199333
0.0201681
0.0198781
0.0197477
0.0200683
0.0199171
0.0199879
0.0198415
0.0197653
0.0196215
0.0197004
0.0195733
0.0203942
0.0202676
0.0201677
0.0200329
0.020139
0.0200126
0.0199178
0.019829
0.0198062
0.0196602
0.0192704
0.0190933
0.0195692
0.0195461
0.0190286
0.0191039
0.0198933
0.0197837
0.0197712
0.0197389
0.0196871
0.01961
0.0197262
0.0197332
0.0195959
0.0196937
0.0193284
0.0196375
0.0198084
0.0199234
0.0199461
0.0202003
0.021246
0.0211286
0.0209445
0.0212312
0.0210605
0.0208228
0.0206975
0.0203972
0.0205192
0.0201545
0.0210545
0.0209015
0.020656
0.0207906
0.0206899
0.0204761
0.0203298
0.0199265
0.0201704
0.0197726
0.0200593
0.0196914
0.0197356
0.0192574
0.0192964
0.0188894
0.0187079
0.0181135
0.01944
0.0188476
0.0192618
0.0186073
0.0181254
0.0173537
0.0178054
0.0170899
0.020434
0.0204281
0.020297
0.0200637
0.0201661
0.0201546
0.0200711
0.0197483
0.0200662
0.0199047
0.0196712
0.019892
0.0200353
0.0194186
0.0196673
0.0199414
0.0201403
0.0202268
0.020248
0.0206144
0.0193024
0.018718
0.0196557
0.0193471
0.0180607
0.0177824
0.0191319
0.0195345
0.0203102
0.0204538
0.0210835
0.0217073
0.0208168
0.0215766
0.02249
0.0230695
0.0185172
0.0182757
0.0175749
0.0172883
0.0182409
0.0184563
0.0173597
0.0177897
0.016772
0.0167447
0.0169111
0.0176103
0.0172388
0.017935
0.0185696
0.0190196
0.0189381
0.019554
0.0185646
0.0194552
0.0201347
0.0205804
0.020252
0.0208933
0.0187591
0.0194671
0.0192763
0.01948
0.0199491
0.0204525
0.0193426
0.0190588
0.0182896
0.019052
0.0203377
0.0199231
0.0190957
0.0185738
0.0185394
0.0180458
0.0219126
0.0208197
0.0229122
0.0224425
0.019808
0.0200633
0.0224644
0.0224144
0.0186231
0.0194525
0.0186418
0.0197941
0.0201076
0.0196884
0.0211579
0.0217831
0.0202862
0.0200298
0.0214321
0.0198678
0.0201279
0.0209111
0.0185316
0.0181807
0.0198387
0.0201146
0.0197556
0.0200532
0.0196257
0.0195256
0.0196967
0.0199954
0.0196898
0.0199615
0.01946
0.0194619
0.0194919
0.0193876
0.0194654
0.0193838
0.0193173
0.0193106
0.0193332
0.019321
0.0197592
0.0199681
0.019922
0.0200229
0.019567
0.0198197
0.0201172
0.0200927
0.0202097
0.0201018
0.020131
0.0203114
0.0194089
0.0196781
0.0193687
0.0194991
0.0200397
0.0203612
0.0197364
0.0202136
0.0195591
0.019542
0.0197715
0.0198546
0.0195686
0.0196147
0.0200111
0.0201917
0.0200489
0.0202035
0.0204026
0.0205766
0.020431
0.0206577
0.0207761
0.0209434
0.0196727
0.0196113
0.0203827
0.0202318
0.019531
0.0197833
0.019785
0.0197482
0.0208824
0.0205338
0.0211539
0.0207483
0.0197084
0.0198544
0.0197689
0.0200613
0.0202061
0.020054
0.0201434
0.0199787
0.0203842
0.0203268
0.0201037
0.0199261
0.020185
0.0199447
0.0202548
0.0204009
0.0206664
0.0206393
0.0209252
0.0210565
0.0204035
0.0205584
0.0206238
0.0207167
0.0202996
0.019994
0.0203718
0.0200384
0.0206007
0.0207017
0.0204111
0.0200756
0.0204282
0.0201033
0.0207385
0.0207349
0.0208599
0.0209891
0.0210856
0.0212113
0.0210224
0.0209985
0.0212289
0.0211872
0.0202896
0.0205366
0.0199376
0.0204318
0.0205508
0.0208883
0.0213006
0.0217071
0.0204983
0.0213895
0.021014
0.0217921
0.0224609
0.022306
0.022208
0.021496
0.0212512
0.0213315
0.0215987
0.0214556
0.021332
0.0212873
0.0213829
0.0213239
0.0216383
0.0214017
0.0209908
0.0211016
0.0213316
0.021299
0.0211754
0.0212216
0.0208719
0.0210261
0.0213507
0.0215557
0.0210632
0.0210319
0.0213994
0.0210599
0.0211857
0.0218484
0.0196232
0.0210125
0.0218552
0.0213742
0.0217522
0.0215003
0.0209514
0.0207634
0.0205466
0.0205178
0.0205283
0.0208378
0.0209511
0.0208215
0.0207772
0.0207728
0.0209448
0.0207764
0.021244
0.0208301
0.0211691
0.0210637
0.0190999
0.0197678
0.020776
0.0194634
0.0208184