# vtk DataFile Version 2.0
Gerris simulation version 1.3.2 (131206-155120)
ASCII
DATASET UNSTRUCTURED_GRID

POINTS 1089 float
-0.5 0.46875 0
-0.46875 0.46875 0
-0.5 0.5 0
-0.46875 0.5 0
-0.4375 0.46875 0
-0.4375 0.5 0
-0.5 0.4375 0
-0.46875 0.4375 0
-0.4375 0.4375 0
-0.40625 0.46875 0
-0.40625 0.5 0
-0.375 0.46875 0
-0.375 0.5 0
-0.40625 0.4375 0
-0.375 0.4375 0
-0.5 0.40625 0
-0.46875 0.40625 0
-0.4375 0.40625 0
-0.5 0.375 0
-0.46875 0.375 0
-0.4375 0.375 0
-0.40625 0.40625 0
-0.375 0.40625 0
-0.40625 0.375 0
-0.375 0.375 0
-0.34375 0.46875 0
-0.34375 0.5 0
-0.3125 0.46875 0
-0.3125 0.5 0
-0.34375 0.4375 0
-0.3125 0.4375 0
-0.28125 0.46875 0
-0.28125 0.5 0
-0.25 0.46875 0
-0.25 0.5 0
-0.28125 0.4375 0
-0.25 0.4375 0
-0.34375 0.40625 0
-0.3125 0.40625 0
-0.34375 0.375 0
-0.3125 0.375 0
-0.28125 0.40625 0
-0.25 0.40625 0
-0.28125 0.375 0
-0.25 0.375 0
-0.5 0.34375 0
-0.46875 0.34375 0
-0.4375 0.34375 0
-0.5 0.3125 0
-0.46875 0.3125 0
-0.4375 0.3125 0
-0.40625 0.34375 0
-0.375 0.34375 0
-0.40625 0.3125 0
-0.375 0.3125 0
-0.5 0.28125 0
-0.46875 0.28125 0
-0.4375 0.28125 0
-0.5 0.25 0
-0.46875 0.25 0
-0.4375 0.25 0
-0.40625 0.28125 0
-0.375 0.28125 0
-0.40625 0.25 0
-0.375 0.25 0
-0.34375 0.34375 0
-0.3125 0.34375 0
-0.34375 0.3125 0
-0.3125 0.3125 0
-0.28125 0.34375 0
-0.25 0.34375 0
-0.28125 0.3125 0
-0.25 0.3125 0
-0.34375 0.28125 0
-0.3125 0.28125 0
-0.34375 0.25 0
-0.3125 0.25 0
-0.28125 0.28125 0
-0.25 0.28125 0
-0.28125 0.25 0
-0.25 0.25 0
-0.21875 0.46875 0
-0.21875 0.5 0
-0.1875 0.46875 0
-0.1875 0.5 0
-0.21875 0.4375 0
-0.1875 0.4375 0
-0.15625 0.46875 0
-0.15625 0.5 0
-0.125 0.46875 0
-0.125 0.5 0
-0.15625 0.4375 0
-0.125 0.4375 0
-0.21875 0.40625 0
-0.1875 0.40625 0
-0.21875 0.375 0
-0.1875 0.375 0
-0.15625 0.40625 0
-0.125 0.40625 0
-0.15625 0.375 0
-0.125 0.375 0
-0.09375 0.46875 0
-0.09375 0.5 0
-0.0625 0.46875 0
-0.0625 0.5 0
-0.09375 0.4375 0
-0.0625 0.4375 0
-0.03125 0.46875 0
-0.03125 0.5 0
0 0.46875 0
0 0.5 0
-0.03125 0.4375 0
0 0.4375 0
-0.09375 0.40625 0
-0.0625 0.40625 0
-0.09375 0.375 0
-0.0625 0.375 0
-0.03125 0.40625 0
0 0.40625 0
-0.03125 0.375 0
0 0.375 0
-0.21875 0.34375 0
-0.1875 0.34375 0
-0.21875 0.3125 0
-0.1875 0.3125 0
-0.15625 0.34375 0
-0.125 0.34375 0
-0.15625 0.3125 0
-0.125 0.3125 0
-0.21875 0.28125 0
-0.1875 0.28125 0
-0.21875 0.25 0
-0.1875 0.25 0
-0.15625 0.28125 0
-0.125 0.28125 0
-0.15625 0.25 0
-0.125 0.25 0
-0.09375 0.34375 0
-0.0625 0.34375 0
-0.09375 0.3125 0
-0.0625 0.3125 0
-0.03125 0.34375 0
0 0.34375 0
-0.03125 0.3125 0
0 0.3125 0
-0.09375 0.28125 0
-0.0625 0.28125 0
-0.09375 0.25 0
-0.0625 0.25 0
-0.03125 0.28125 0
0 0.28125 0
-0.03125 0.25 0
0 0.25 0
-0.5 0.21875 0
-0.46875 0.21875 0
-0.4375 0.21875 0
-0.5 0.1875 0
-0.46875 0.1875 0
-0.4375 0.1875 0
-0.40625 0.21875 0
-0.375 0.21875 0
-0.40625 0.1875 0
-0.375 0.1875 0
-0.5 0.15625 0
-0.46875 0.15625 0
-0.4375 0.15625 0
-0.5 0.125 0
-0.46875 0.125 0
-0.4375 0.125 0
-0.40625 0.15625 0
-0.375 0.15625 0
-0.40625 0.125 0
-0.375 0.125 0
-0.34375 0.21875 0
-0.3125 0.21875 0
-0.34375 0.1875 0
-0.3125 0.1875 0
-0.28125 0.21875 0
-0.25 0.21875 0
-0.28125 0.1875 0
-0.25 0.1875 0
-0.34375 0.15625 0
-0.3125 0.15625 0
-0.34375 0.125 0
-0.3125 0.125 0
-0.28125 0.15625 0
-0.25 0.15625 0
-0.28125 0.125 0
-0.25 0.125 0
-0.5 0.09375 0
-0.46875 0.09375 0
-0.4375 0.09375 0
-0.5 0.0625 0
-0.46875 0.0625 0
-0.4375 0.0625 0
-0.40625 0.09375 0
-0.375 0.09375 0
-0.40625 0.0625 0
-0.375 0.0625 0
-0.5 0.03125 0
-0.46875 0.03125 0
-0.4375 0.03125 0
-0.5 0 0
-0.46875 0 0
-0.4375 0 0
-0.40625 0.03125 0
-0.375 0.03125 0
-0.40625 0 0
-0.375 0 0
-0.34375 0.09375 0
-0.3125 0.09375 0
-0.34375 0.0625 0
-0.3125 0.0625 0
-0.28125 0.09375 0
-0.25 0.09375 0
-0.28125 0.0625 0
-0.25 0.0625 0
-0.34375 0.03125 0
-0.3125 0.03125 0
-0.34375 0 0
-0.3125 0 0
-0.28125 0.03125 0
-0.25 0.03125 0
-0.28125 0 0
-0.25 0 0
-0.21875 0.21875 0
-0.1875 0.21875 0
-0.21875 0.1875 0
-0.1875 0.1875 0
-0.15625 0.21875 0
-0.125 0.21875 0
-0.15625 0.1875 0
-0.125 0.1875 0
-0.21875 0.15625 0
-0.1875 0.15625 0
-0.21875 0.125 0
-0.1875 0.125 0
-0.15625 0.15625 0
-0.125 0.15625 0
-0.15625 0.125 0
-0.125 0.125 0
-0.09375 0.21875 0
-0.0625 0.21875 0
-0.09375 0.1875 0
-0.0625 0.1875 0
-0.03125 0.21875 0
0 0.21875 0
-0.03125 0.1875 0
0 0.1875 0
-0.09375 0.15625 0
-0.0625 0.15625 0
-0.09375 0.125 0
-0.0625 0.125 0
-0.03125 0.15625 0
0 0.15625 0
-0.03125 0.125 0
0 0.125 0
-0.21875 0.09375 0
-0.1875 0.09375 0
-0.21875 0.0625 0
-0.1875 0.0625 0
-0.15625 0.09375 0
-0.125 0.09375 0
-0.15625 0.0625 0
-0.125 0.0625 0
-0.21875 0.03125 0
-0.1875 0.03125 0
-0.21875 0 0
-0.1875 0 0
-0.15625 0.03125 0
-0.125 0.03125 0
-0.15625 0 0
-0.125 0 0
-0.09375 0.09375 0
-0.0625 0.09375 0
-0.09375 0.0625 0
-0.0625 0.0625 0
-0.03125 0.09375 0
0 0.09375 0
-0.03125 0.0625 0
0 0.0625 0
-0.09375 0.03125 0
-0.0625 0.03125 0
-0.09375 0 0
-0.0625 0 0
-0.03125 0.03125 0
0 0.03125 0
-0.03125 0 0
0 0 0
0.03125 0.46875 0
0.03125 0.5 0
0.0625 0.46875 0
0.0625 0.5 0
0.03125 0.4375 0
0.0625 0.4375 0
0.09375 0.46875 0
0.09375 0.5 0
0.125 0.46875 0
0.125 0.5 0
0.09375 0.4375 0
0.125 0.4375 0
0.03125 0.40625 0
0.0625 0.40625 0
0.03125 0.375 0
0.0625 0.375 0
0.09375 0.40625 0
0.125 0.40625 0
0.09375 0.375 0
0.125 0.375 0
0.15625 0.46875 0
0.15625 0.5 0
0.1875 0.46875 0
0.1875 0.5 0
0.15625 0.4375 0
0.1875 0.4375 0
0.21875 0.46875 0
0.21875 0.5 0
0.25 0.46875 0
0.25 0.5 0
0.21875 0.4375 0
0.25 0.4375 0
0.15625 0.40625 0
0.1875 0.40625 0
0.15625 0.375 0
0.1875 0.375 0
0.21875 0.40625 0
0.25 0.40625 0
0.21875 0.375 0
0.25 0.375 0
0.03125 0.34375 0
0.0625 0.34375 0
0.03125 0.3125 0
0.0625 0.3125 0
0.09375 0.34375 0
0.125 0.34375 0
0.09375 0.3125 0
0.125 0.3125 0
0.03125 0.28125 0
0.0625 0.28125 0
0.03125 0.25 0
0.0625 0.25 0
0.09375 0.28125 0
0.125 0.28125 0
0.09375 0.25 0
0.125 0.25 0
0.15625 0.34375 0
0.1875 0.34375 0
0.15625 0.3125 0
0.1875 0.3125 0
0.21875 0.34375 0
0.25 0.34375 0
0.21875 0.3125 0
0.25 0.3125 0
0.15625 0.28125 0
0.1875 0.28125 0
0.15625 0.25 0
0.1875 0.25 0
0.21875 0.28125 0
0.25 0.28125 0
0.21875 0.25 0
0.25 0.25 0
0.28125 0.46875 0
0.28125 0.5 0
0.3125 0.46875 0
0.3125 0.5 0
0.28125 0.4375 0
0.3125 0.4375 0
0.34375 0.46875 0
0.34375 0.5 0
0.375 0.46875 0
0.375 0.5 0
0.34375 0.4375 0
0.375 0.4375 0
0.28125 0.40625 0
0.3125 0.40625 0
0.28125 0.375 0
0.3125 0.375 0
0.34375 0.40625 0
0.375 0.40625 0
0.34375 0.375 0
0.375 0.375 0
0.40625 0.46875 0
0.40625 0.5 0
0.4375 0.46875 0
0.4375 0.5 0
0.40625 0.4375 0
0.4375 0.4375 0
0.46875 0.46875 0
0.46875 0.5 0
0.5 0.46875 0
0.5 0.5 0
0.46875 0.4375 0
0.5 0.4375 0
0.40625 0.40625 0
0.4375 0.40625 0
0.40625 0.375 0
0.4375 0.375 0
0.46875 0.40625 0
0.5 0.40625 0
0.46875 0.375 0
0.5 0.375 0
0.28125 0.34375 0
0.3125 0.34375 0
0.28125 0.3125 0
0.3125 0.3125 0
0.34375 0.34375 0
0.375 0.34375 0
0.34375 0.3125 0
0.375 0.3125 0
0.28125 0.28125 0
0.3125 0.28125 0
0.28125 0.25 0
0.3125 0.25 0
0.34375 0.28125 0
0.375 0.28125 0
0.34375 0.25 0
0.375 0.25 0
0.40625 0.34375 0
0.4375 0.34375 0
0.40625 0.3125 0
0.4375 0.3125 0
0.46875 0.34375 0
0.5 0.34375 0
0.46875 0.3125 0
0.5 0.3125 0
0.40625 0.28125 0
0.4375 0.28125 0
0.40625 0.25 0
0.4375 0.25 0
0.46875 0.28125 0
0.5 0.28125 0
0.46875 0.25 0
0.5 0.25 0
0.03125 0.21875 0
0.0625 0.21875 0
0.03125 0.1875 0
0.0625 0.1875 0
0.09375 0.21875 0
0.125 0.21875 0
0.09375 0.1875 0
0.125 0.1875 0
0.03125 0.15625 0
0.0625 0.15625 0
0.03125 0.125 0
0.0625 0.125 0
0.09375 0.15625 0
0.125 0.15625 0
0.09375 0.125 0
0.125 0.125 0
0.15625 0.21875 0
0.1875 0.21875 0
0.15625 0.1875 0
0.1875 0.1875 0
0.21875 0.21875 0
0.25 0.21875 0
0.21875 0.1875 0
0.25 0.1875 0
0.15625 0.15625 0
0.1875 0.15625 0
0.15625 0.125 0
0.1875 0.125 0
0.21875 0.15625 0
0.25 0.15625 0
0.21875 0.125 0
0.25 0.125 0
0.03125 0.09375 0
0.0625 0.09375 0
0.03125 0.0625 0
0.0625 0.0625 0
0.09375 0.09375 0
0.125 0.09375 0
0.09375 0.0625 0
0.125 0.0625 0
0.03125 0.03125 0
0.0625 0.03125 0
0.03125 0 0
0.0625 0 0
0.09375 0.03125 0
0.125 0.03125 0
0.09375 0 0
0.125 0 0
0.15625 0.09375 0
0.1875 0.09375 0
0.15625 0.0625 0
0.1875 0.0625 0
0.21875 0.09375 0
0.25 0.09375 0
0.21875 0.0625 0
0.25 0.0625 0
0.15625 0.03125 0
0.1875 0.03125 0
0.15625 0 0
0.1875 0 0
0.21875 0.03125 0
0.25 0.03125 0
0.21875 0 0
0.25 0 0
0.28125 0.21875 0
0.3125 0.21875 0
0.28125 0.1875 0
0.3125 0.1875 0
0.34375 0.21875 0
0.375 0.21875 0
0.34375 0.1875 0
0.375 0.1875 0
0.28125 0.15625 0
0.3125 0.15625 0
0.28125 0.125 0
0.3125 0.125 0
0.34375 0.15625 0
0.375 0.15625 0
0.34375 0.125 0
0.375 0.125 0
0.40625 0.21875 0
0.4375 0.21875 0
0.40625 0.1875 0
0.4375 0.1875 0
0.46875 0.21875 0
0.5 0.21875 0
0.46875 0.1875 0
0.5 0.1875 0
0.40625 0.15625 0
0.4375 0.15625 0
0.40625 0.125 0
0.4375 0.125 0
0.46875 0.15625 0
0.5 0.15625 0
0.46875 0.125 0
0.5 0.125 0
0.28125 0.09375 0
0.3125 0.09375 0
0.28125 0.0625 0
0.3125 0.0625 0
0.34375 0.09375 0
0.375 0.09375 0
0.34375 0.0625 0
0.375 0.0625 0
0.28125 0.03125 0
0.3125 0.03125 0
0.28125 0 0
0.3125 0 0
0.34375 0.03125 0
0.375 0.03125 0
0.34375 0 0
0.375 0 0
0.40625 0.09375 0
0.4375 0.09375 0
0.40625 0.0625 0
0.4375 0.0625 0
0.46875 0.09375 0
0.5 0.09375 0
0.46875 0.0625 0
0.5 0.0625 0
0.40625 0.03125 0
0.4375 0.03125 0
0.40625 0 0
0.4375 0 0
0.46875 0.03125 0
0.5 0.03125 0
0.46875 0 0
0.5 0 0
-0.5 -0.03125 0
-0.46875 -0.03125 0
-0.4375 -0.03125 0
-0.5 -0.0625 0
-0.46875 -0.0625 0
-0.4375 -0.0625 0
-0.40625 -0.03125 0
-0.375 -0.03125 0
-0.40625 -0.0625 0
-0.375 -0.0625 0
-0.5 -0.09375 0
-0.46875 -0.09375 0
-0.4375 -0.09375 0
-0.5 -0.125 0
-0.46875 -0.125 0
-0.4375 -0.125 0
-0.40625 -0.09375 0
-0.375 -0.09375 0
-0.40625 -0.125 0
-0.375 -0.125 0
-0.34375 -0.03125 0
-0.3125 -0.03125 0
-0.34375 -0.0625 0
-0.3125 -0.0625 0
-0.28125 -0.03125 0
-0.25 -0.03125 0
-0.28125 -0.0625 0
-0.25 -0.0625 0
-0.34375 -0.09375 0
-0.3125 -0.09375 0
-0.34375 -0.125 0
-0.3125 -0.125 0
-0.28125 -0.09375 0
-0.25 -0.09375 0
-0.28125 -0.125 0
-0.25 -0.125 0
-0.5 -0.15625 0
-0.46875 -0.15625 0
-0.4375 -0.15625 0
-0.5 -0.1875 0
-0.46875 -0.1875 0
-0.4375 -0.1875 0
-0.40625 -0.15625 0
-0.375 -0.15625 0
[...]
POINT_DATA 1089
SCALARS T float
LOOKUP_TABLE default
0
0
0
0
0
0
0
0
0
0
0
0
0
0
0
0
0
0
0
0
0
0
0
0
0
0
0
0
0
0
0
0
0
0
0
0
0
0
0
0
0
0
0
0
0
0
0
0
0
0
0
0
0
0
0
0
0
0
0
0
0
0
0
0
0
0
0
0
0
0
0
0
0
0
0
0
0
0
0
0
0
0
0
0
0
0
0
0
0
0
0
0
0
0
0
0
0
0
0
0
0
0
0
0
0
0
0
0
0
0
0
0
0
0
0
0
0
0
0
0
0
0
0
0
0
0
0
0
0
0
0
0
0
0
0
0
0
0
0
0
0
0
0
0
0
0
0
0
0
0
0
0
0
0
0
0
0
0
0
0
0
0
0
0
0
0
0
0
0
0
0
0
0
0
0
0
0
0
0
0
0
0
0
0
0
0
0
0
0
0
0
0
0
0
0
0
0
0
0
0
0
0
0
0
0
0
0
0
0
0
0
0
0
0
0
0
2.59794e-05
0
0.0069889
0.0276467
0.237298
0.118697
0.323765
0.57136
0.823739
0
0
0
0
0
0
0
0
0
0
0
0
0
0
0
0
0
0
0
0
0
0
0
0
0
0
0
0
0
0
0
0
0
0
0.022047
0.0697428
0
0
0.0897086
0.0525863
0.484078
0.569743
0.962031
1
0.589709
0.547307
1
0.994721
0
0
0.0105994
0
0
0
0
0
0.440548
0.260388
0.929949
0.760225
0.0752108
5.05262e-05
0.477134
0.155402
0
0
0
0
0
0
0
0
0
0
0
0
0
0
0
0
0
0
0
0
0
0
0
0
0
0
0
0
0
0
0
0
0
0
0
0
0
0
0
0
0
0
0
0
0
0
0
0.000502162
0
0
0
0
0.00748633
0.172621
0.124714
0.539347
0
0
0.0299297
0.0756599
0
0
0.0523222
0.00608994
0.444562
0.57566
0.914632
1
0.515381
0.262584
0.963059
0.697331
0
0
0
0
0
0
0
0
0
0
0
0
0
0
0
0
0
0
0
0
0
0
0
0
0
0
0
0
0
0
0
0
0
0
0
0
0
0
0
0
0
0
0
0
0
0
0
0
0.0434359
0
0.234283
1.08785e-05
0
0
0
0
0
0
0
0
0
0
0
0
0
0
0
0
0
0
0
0
0
0
0
0
0.297793
0.797793
0.326405
0.826405
0
0
0
0
0.173019
0.63348
0.0271786
0.243409
1
1
1
1
1
0.934753
1
0.943918
0.960461
1
0.534336
0.643195
0.976915
0.73335
0.566703
0.298047
0
0
0
0
0
0.00576919
0
0
0
0
0.00326434
0
0
0
0
0
0.073875
0.143195
0
0
0.0897879
0.0146986
0
0
0
0
0
0
0
0
8.45346e-05
8.45346e-05
0.434823
7.01012e-05
0.443993
7.51201e-05
0
0
0
0
0.256451
1.58974e-05
0.0564338
0
0
0
0
0
0
0
0
0
0
0
0
0
0
0
0
0
0
0
0
0
0
0
0
0
0
0
0
0
0
0
0
0
0
0
0
0
0
0
0
0
0
0
0
0
0
0
0
0
0
0
0
0
0
0
0
0
0
0
0
0.000320549
0
0.0466186
0
0
0
0
0
0
0
0.129874
0
0.138426
0.213775
0.666117
0.482426
0.935808
0.952662
1
1
1
0.629874
1
0.638426
1
1
1
1
1
0
0
0
0
0
0
0
0.0567034
0
0.00185403
0
0
0
0
0
0
0
0
0
0
0.509205
0.952502
0.242752
0.715312
1
1
0.974413
1
0.0383962
0.28242
0
0.0196107
0.644518
0.892294
0.170104
0.404936
1
1
1
1
1
1
1
1
1
1
1
1
1
1
1
1
1
0.999837
1
1
0.901924
0.520501
1
0.842303
1
1
1
1
1
0.977153
1
0.994989
1
1
1
1
1
1
1
1
0.9918
1
0.573014
0.669153
1
1
0.702905
0.675611
1
1
1
1
1
0.911841
0.967493
0.661402
0.993336
0.899248
0.584013
0.416638
0.645972
0.267117
0.178479
0.0225671
0
0
0
0
0
0
0
0
0
0
0
0
0
0
0
0
0
0
0
0
0
0
0
0
0
0.0126423
0
0
0
0
0
0
0
0
0
0
0
0
0
0
0
0
0
0
0
0
0
0
0
0
0
0
0
0
0
0
0
0
0
0
0
0
0
0
0
0
0
0
0
0
0
0
0.0812138
0.169153
0
0
0.202905
0.175611
0
0
0
0
0
0
0
0
0
0
0.090677
0.0173899
0
0
0
0
0
0
0
0
0
0
0
0
0
0
0
0
0
0
0
0
0
0
0
0
0
0
0
0
0
0
0
0
0
0
0
0
0
0
0
0
0
0
0
0
0
0
0.118414
0
0.344602
0.0022993
0
0
0
0
0.502638
0.0254854
0.526062
0.0310738
0
0
0
0
0
0.0295948
0
0.0629435
0.0485543
0.0189595
0.157631
0.120985
0.0733893
0.35502
0.190783
0.689065
0.607443
0.560012
0.998282
0.957902
0.419728
0.00788766
0.193908
0
0
0
0
0
0.0270561
0
0
0
0
0
0
0
0.158861
0.654094
0.0414665
0.352673
0.995234
0.995388
0.705959
0.719949
0
0.0659731
0
0
0.210725
0.224561
0
0
0
0
0.0262977
0
0
0
0
0
0.247422
0.013223
0.539059
0.0811573
0
0
0
0
0
0
0
0
0
0
0
0
0
0
0
0
0
0
0
0
0.60153
0.106142
0.363405
0.0382077
0
0
0
0
0.0798089
0
0
0
0
0
0
0
0
0
0
0
0
0
0
0
0
0
0
0
0
0
0
0
0
0
0
0
0
0
0
0
0
0
0
0
0
0
0
0
0
0
0
0
0
0
0
0
0
0
0
0
0
0
0
0
0
0
0
0
0
0
0
0
0
0
0
0
0
0
0
0
0
0
0
0
0
0
0
0
0
0
0
0
0
0
0
0
0
0
0
0
0
0
0
0
0
0
0
0
0
0
0
0
0
0
0
0
0
0
0
0
0
0
0
0
0
0
0
0
0
0
0
0
0
0
0
0
0
0
0
0
0
0
0
0
0
0
0
0
0
0
0
0
0
0
0
0
0
0
0
0

SCALARS P float
LOOKUP_TABLE default
-0.00804922
-0.00784321
-0.00812214
-0.00790729
-0.00761367
-0.00766167
-0.00800281
-0.00780511
-0.00758728
-0.00736539
-0.00739166
-0.00710438
-0.00710236
-0.00735463
-0.00711353
-0.00798446
-0.00779077
-0.00757951
-0.00799281
-0.00779858
-0.00758853
-0.00735596
-0.00712651
-0.00736752
-0.00714171
-0.0068389
-0.0068019
-0.00658051
-0.00650342
-0.00687202
-0.00664056
-0.006343
-0.00622332
-0.00614231
-0.00598262
-0.00643106
-0.00625639
-0.00689889
-0.00668288
-0.00691853
-0.00670752
-0.00648929
-0.00632944
-0.00651916
-0.00636449
-0.00802639
-0.00782721
-0.00761324
-0.0080843
-0.00787634
-0.00765389
-0.00738844
-0.00715852
-0.00741934
-0.00717761
-0.00816333
-0.00794522
-0.0077113
-0.00826865
-0.00803726
-0.0077891
-0.00746195
-0.00720099
-0.00752035
-0.00723267
-0.00693055
-0.00671429
-0.00693537
-0.0067031
-0.00652074
-0.00636181
-0.00649308
-0.00631963
-0.00693447
-0.00667404
-0.00693064
-0.00662758
-0.00643421
-0.00623346
-0.00634125
-0.00609697
-0.00599408
-0.00580288
-0.00590989
-0.00569952
-0.00612873
-0.00605711
-0.00589697
-0.00568352
-0.00595545
-0.00575602
-0.00604657
-0.00609638
-0.00621379
-0.00614999
-0.00625363
-0.00619402
-0.00614201
-0.00618853
-0.00618938
-0.00623811
-0.00607827
-0.00590829
-0.00625212
-0.00612341
-0.00620039
-0.00634687
-0.00646083
-0.00638014
-0.00668666
-0.00665613
-0.00652238
-0.00671057
-0.00628355
-0.00641537
-0.00633394
-0.00646381
-0.0065711
-0.00673269
-0.00661324
-0.00676018
-0.00624874
-0.00618994
-0.00619665
-0.00613498
-0.00618988
-0.00624714
-0.00614092
-0.00621413
-0.00609048
-0.00602027
-0.00592101
-0.00583436
-0.00603249
-0.00612914
-0.00585183
-0.0059801
-0.00635488
-0.00649772
-0.00634743
-0.00652304
-0.00665765
-0.00680584
-0.00671816
-0.00689667
-0.00630308
-0.00653396
-0.00621357
-0.00653148
-0.00679302
-0.00703798
-0.00690401
-0.00728833
-0.00838892
-0.0081503
-0.00789062
-0.00852252
-0.00828847
-0.00802379
-0.00760108
-0.00728052
-0.00771427
-0.00735513
-0.00867873
-0.00846293
-0.00820417
-0.0088683
-0.00868707
-0.0084491
-0.00788051
-0.00748127
-0.00812114
-0.00768265
-0.00693081
-0.00656727
-0.0069432
-0.00649626
-0.00621157
-0.00589963
-0.00604085
-0.00563082
-0.00699275
-0.00643351
-0.00709893
-0.006386
-0.00583134
-0.00526988
-0.00557211
-0.00479986
-0.00910373
-0.00897904
-0.00878797
-0.00938654
-0.00934898
-0.00924241
-0.00848169
-0.00802508
-0.00899903
-0.00856249
-0.00972173
-0.00980958
-0.00984394
-0.0100836
-0.0103442
-0.0105937
-0.00973859
-0.00941363
-0.0107494
-0.0107422
-0.00734198
-0.00643091
-0.0077764
-0.00657889
-0.00528642
-0.00416939
-0.00491157
-0.00329954
-0.00857816
-0.00664249
-0.00827453
0.00585904
0.00105124
0.0124586
0.0254134
0.0376026
-0.00567008
-0.00555235
-0.0053234
-0.00515526
-0.00556932
-0.00573537
-0.00516009
-0.00536427
-0.00483975
-0.00458401
-0.00420906
-0.00382587
-0.00455599
-0.00480048
-0.00373626
-0.00401511
-0.00604701
-0.00648399
-0.00576615
-0.00634637
-0.00701996
-0.00760992
-0.00707402
-0.00788243
-0.00531422
-0.00607445
-0.00465556
-0.00563479
-0.00701318
-0.00800155
-0.00683257
-0.0079831
-0.003331
-0.0027353
-0.0012908
0.00144166
-0.00252984
-0.00284667
0.0025365
0.000717429
0.0202486
0.0240685
0.0432935
0.0443272
0.0247976
0.022819
0.0439045
0.043677
-0.00368286
-0.00505293
-0.00194575
-0.00423545
-0.00671892
-0.00812101
-0.00664195
-0.0084523
0.0178346
0.00850556
0.0413035
0.0342918
-0.00313426
-0.00932545
0.0191685
-0.00108366
-0.00691702
-0.00693416
-0.00714062
-0.00720265
-0.00690113
-0.00708245
-0.007359
-0.00746059
-0.00756901
-0.00770514
-0.00726149
-0.00743262
-0.00689076
-0.00703046
-0.00689282
-0.00698543
-0.00716333
-0.00727696
-0.007058
-0.00708334
-0.00778138
-0.00794129
-0.00800413
-0.00817063
-0.00762202
-0.0078523
-0.00822192
-0.00838043
-0.00839929
-0.00854632
-0.00810315
-0.00830339
-0.00743452
-0.0076903
-0.00719933
-0.00752025
-0.00802141
-0.008267
-0.00801535
-0.00831351
-0.00692065
-0.00695924
-0.0070205
-0.00702381
-0.00694125
-0.00678408
-0.00688177
-0.00635469
-0.00720236
-0.00721542
-0.00760489
-0.00784068
-0.00601841
0.0132551
0.00753821
0.0559043
-0.00679537
-0.00726874
-0.00323389
0.00089936
-0.00815861
-0.00852453
-0.00286386
-0.0082197
0.0440178
0.0586012
0.0987177
0.109142
0.0512788
0.0215516
0.105608
0.0739265
-0.00851624
-0.00865511
-0.00858558
-0.00871325
-0.00842633
-0.00850904
-0.00860123
-0.00871792
-0.00856731
-0.00867523
-0.00853251
-0.00850302
-0.00839093
-0.00849174
-0.0084016
-0.00853033
-0.00851694
-0.00848539
-0.00854981
-0.0085115
-0.00849124
-0.00859098
-0.00837662
-0.0084689
-0.0084311
-0.00832011
-0.00822806
-0.00831282
-0.00804922
-0.0081279
-0.00817582
-0.00800281
-0.00841225
-0.00829995
-0.00843311
-0.00831496
-0.00815568
-0.00798446
-0.0081665
-0.00799281
-0.00846485
-0.00863593
-0.0086521
-0.00890011
-0.00863673
-0.00858544
-0.00882059
-0.00872201
-0.00390776
-0.00891681
0.0182707
-0.00966456
-0.00890849
-0.00883584
-0.00942345
-0.00914037
-0.00849494
-0.00836452
-0.00860048
-0.00844778
-0.0082069
-0.00802639
-0.00827558
-0.0080843
-0.0087128
-0.00854867
-0.00892109
-0.0087015
-0.0083652
-0.00816333
-0.00848827
-0.00826865
-0.00823263
-0.00894612
-0.0088184
-0.00994807
0.0278548
0.0876365
0.031031
0.0920798
-0.00905267
-0.0102436
-0.00900288
-0.0099618
0.0112756
0.0677693
-0.00713843
0.0194796
0.110103
0.110164
0.110927
0.110172
0.110932
0.103465
0.1103
0.104118
0.1058
0.109217
0.0542468
0.0662942
0.10632
0.0776872
0.0573072
0.0258655
-0.00916003
-0.00997426
-0.00956727
-0.0104156
-0.0104229
-0.00950783
-0.0108368
-0.0108373
-0.0104004
-0.0112043
-0.0115842
-0.0123826
-0.0115312
-0.0116218
-0.0126024
-0.0127078
-0.000936661
0.00749796
-0.0104605
-0.00990496
0.00143147
-0.00729914
-0.0097157
-0.00965208
-0.0116232
-0.0112701
-0.0129841
-0.0127331
-0.0109306
-0.0104077
-0.0121344
-0.0110193
0.0423148
-0.0104968
0.0434376
-0.0104256
-0.00989702
-0.00941397
-0.00983949
-0.00946368
0.020611
-0.010133
-0.00290807
-0.00967545
-0.00970116
-0.00945944
-0.00950479
-0.00940484
-0.00910603
-0.00884754
-0.00918457
-0.00895338
-0.00861695
-0.00838892
-0.0087392
-0.00852252
-0.00923316
-0.00904841
-0.00926353
-0.00914222
-0.00886803
-0.00867873
-0.00901339
-0.0088683
-0.00933904
-0.0095288
-0.00957907
-0.00955219
-0.00945564
-0.00940251
-0.00943588
-0.00939549
-0.00983451
-0.00960642
-0.00986288
-0.00946651
-0.00941354
-0.00938677
-0.00923385
-0.00927169
-0.00932179
-0.00925719
-0.0093726
-0.00937629
-0.0091884
-0.00910373
-0.00938659
-0.00938654
-0.00942476
-0.00950601
-0.00940821
-0.00959913
-0.00961193
-0.00972173
-0.00983087
-0.0100836
-0.0104612
-0.0109323
-0.0114767
-0.0107839
-0.0114658
-0.0123285
-0.0120805
-0.0127032
-0.0134816
-0.0110612
-0.0109919
-0.0118161
-0.0129047
-0.0110497
-0.0118748
-0.012981
-0.0144724
-0.00557369
-0.0145908
-0.0049052
0.00254214
0.0324466
0.0206544
0.0518082
0.04812
0.048611
0.0528563
0.0503782
0.0318497
0.0574155
0.0326488
0.0575339
0.0538747
0.0513154
0.0539746
0.0513997
-0.0109391
-0.0116126
-0.0124961
-0.0106988
-0.0111309
-0.0116628
-0.0137203
-0.0104111
-0.0122933
-0.0128094
-0.0103779
-0.0105683
-0.0107713
-0.0100221
-0.0100241
-0.00998676
-0.0109018
-0.0108693
-0.00981663
-0.00942263
0.0228842
0.0533753
0.00476865
0.0361948
0.0530689
0.0505721
0.049753
0.0488563
-0.00748185
0.00902874
-0.00846502
-0.00557118
0.0299214
0.0413561
0.00437287
0.0171713
0.047238
0.0463716
0.0487762
0.0478649
0.0460152
0.04626
0.0475687
0.0479087
0.049643
0.0487038
0.0497362
0.0488225
0.048448
0.0488779
0.0486247
0.0491383
0.0471823
0.0489105
0.0489457
0.0507245
0.045406
0.0217105
0.0534253
0.0443089
0.0500053
0.0518364
0.0503636
0.0523007
0.0544172
0.0554282
0.0549641
0.0576283
0.0490161
0.0481893
0.0475284
0.0467895
0.0480764
0.0486756
0.0467622
0.0474642
0.0449747
0.0447402
0.0249988
0.029094
0.0448181
0.045534
0.0305745
0.0296344
0.0499986
0.052085
0.0489088
0.0511138
0.0550848
0.0515247
0.0521686
0.0332439
0.0465699
0.0435959
0.0258279
0.0176212
0.0308137
0.00690761
0.00324847
-0.00747437
-0.00966367
-0.00953715
-0.00934823
-0.00933133
-0.00912736
-0.00885628
-0.00902069
-0.00848888
-0.00846581
-0.00791375
-0.00903036
-0.00878646
-0.00847816
-0.00877157
-0.00851423
-0.0082005
-0.00807228
-0.00754305
-0.00781172
-0.0073344
-0.00754773
-0.00619473
-0.00709725
-0.00604753
-0.00425581
-0.00172667
-0.00467274
-0.00330348
-0.00684265
-0.00600444
-0.00675033
-0.00608623
-0.0050259
-0.0040839
-0.00535624
-0.0046663
-0.00855287
-0.00829719
-0.00799329
-0.00837403
-0.00812887
-0.0078435
-0.00763211
-0.00720844
-0.00751518
-0.00714402
-0.00823246
-0.00800092
-0.00773594
-0.0081279
-0.00790729
-0.00766167
-0.00743865
-0.0071124
-0.00739166
-0.00710236
-0.00671938
-0.00618722
-0.00673412
-0.00630348
-0.00563555
-0.00512934
-0.00587438
-0.00548944
-0.0067643
-0.00640968
-0.0068019
-0.00650342
-0.00606811
-0.00576878
-0.00622332
-0.00598262
0.00253473
0.00695894
-0.00223686
-0.00148959
0.00845167
0.00690499
-0.00134931
-0.00181587
-0.00334161
-0.00284232
-0.00413052
-0.00378987
-0.00275136
-0.0030755
-0.00373078
-0.00396084
0.00222703
-0.00267344
-0.00282713
-0.00415366
-0.00575822
-0.00755006
-0.00569762
-0.00698504
-0.00376914
-0.00468881
-0.00444888
-0.00511143
-0.00573286
-0.00667466
-0.0058651
-0.00657912
-0.00473881
-0.00449858
-0.00519552
-0.0050203
-0.00445889
-0.00462622
-0.00499242
-0.00511602
-0.00554272
-0.0054107
-0.00580288
-0.00569952
-0.00539024
-0.00548385
-0.00568352
-0.00575602
-0.00497763
-0.00545932
-0.005375
-0.00573499
-0.00601124
-0.00655981
-0.00615361
-0.00658413
-0.00567979
-0.00595444
-0.00590829
-0.00612341
-0.00627819
-0.00662032
-0.00638014
-0.00665613
-0.00564248
-0.0138612
0.0090214
-0.0152133
-0.0138218
-0.0139035
-0.0147063
-0.0145354
0.0206461
-0.0146204
0.0232475
-0.0133134
-0.0154835
-0.0157958
-0.0136281
-0.0126155
-0.0146346
-0.00882875
-0.0160631
-0.0052956
-0.00424256
-0.00797141
0.0143447
0.0104455
-0.00275415
0.0525759
0.0215519
0.116115
0.102269
0.0903366
0.176235
0.163491
0.0162539
-0.0129721
0.000826681
-0.0120044
-0.0107594
-0.00757019
-0.0100865
-0.00778339
-0.0093901
-0.0106059
-0.00949635
-0.00952343
-0.00969445
-0.00879897
-0.00925141
-0.00899067
0.0216561
0.1085
0.00232712
0.0578558
0.171287
0.172554
0.121398
0.122006
-0.0074341
0.00484434
-0.00861685
-0.00980486
0.0295224
0.0274141
-0.0128393
-0.0145162
-0.00953038
-0.00901366
-0.00470345
-0.00842441
-0.00887557
-0.00907219
-0.00843563
-0.00882196
0.0345162
-0.00398585
0.0854255
0.00665455
-0.00709819
-0.00823616
-0.00703153
-0.00829972
-0.00935433
-0.00967843
-0.0092613
-0.00971941
-0.0100492
-0.0104612
-0.0102203
-0.0107839
-0.00904224
-0.00969764
-0.00912354
-0.00977919
-0.0103187
-0.0109919
-0.0103838
-0.0110497
0.0965744
0.00710509
0.0524816
-0.0056623
-0.00879126
-0.00915058
-0.0102901
-0.00997158
-0.00066971
-0.0123974
-0.0136811
-0.0120294
-0.0111155
-0.0105238
-0.011034
-0.0105554
-0.00952531
-0.00995227
-0.00994136
-0.0101086
-0.0104026
-0.0109391
-0.0103582
-0.0106988
-0.0102285
-0.0101758
-0.0102323
-0.0100888
-0.0102355
-0.0103779
-0.0100303
-0.0100221
-0.00835209
-0.00873923
-0.00774903
-0.00823575
-0.00888586
-0.00900246
-0.00856208
-0.00884002
-0.00736542
-0.00787449
-0.00716697
-0.00764363
-0.00827386
-0.00862036
-0.00804706
-0.008403
-0.00911655
-0.00993168
-0.00913229
-0.00971971
-0.0115954
-0.0123272
-0.0106691
-0.0111119
-0.00896905
-0.00943246
-0.00874646
-0.00911908
-0.0100299
-0.0103161
-0.00952164
-0.00974706
-0.00705092
-0.0074777
-0.00699097
-0.007362
-0.00785642
-0.00819674
-0.00770207
-0.00801301
-0.00695649
-0.00727409
-0.00693416
-0.00720265
-0.00757295
-0.00785126
-0.00746059
-0.00770514
-0.00851803
-0.00883426
-0.00830406
-0.00857874
-0.0091373
-0.00932831
-0.00882676
-0.00899985
-0.0081137
-0.00836052
-0.00794129
-0.00817063
-0.0085803
-0.0087451
-0.00838043
-0.00854632
-0.0119678
-0.0113498
-0.0110249
-0.0107687
-0.0107318
-0.0103836
-0.0103796
-0.0101198
-0.0103186
-0.0102281
-0.00980612
-0.00978641
-0.010003
-0.00981534
-0.00965889
-0.00952165
-0.0100928
-0.00990827
-0.00987435
-0.0096793
-0.00977549
-0.00966367
-0.00950628
-0.00933133
-0.00961539
-0.00942682
-0.00935811
-0.00918221
-0.00923748
-0.00903036
-0.00899026
-0.00877157
-0.00940912
-0.00942283
-0.00909353
-0.00912727
-0.0093536
-0.00925243
-0.00909397
-0.00901906
-0.00884638
-0.0088932
-0.00865511
-0.00871325
-0.00888238
-0.00882625
-0.00871792
-0.00867523
-0.00911739
-0.00895667
-0.00890594
-0.00876004
-0.00877046
-0.00855287
-0.00858348
-0.00837403
-0.00872974
-0.008597
-0.00859098
-0.0084689
-0.00843112
-0.00823246
-0.00831282
-0.00812214

SCALARS U float
LOOKUP_TABLE default
0.0216393
0.0220417
0.0215636
0.0220045
0.0224117
0.0224261
0.0217539
0.0221037
0.0224241
0.022735
0.0228043
0.0229906
0.0231189
0.0226987
0.0229062
0.0218976
0.0221972
0.0224765
0.0220559
0.022315
0.022568
0.0227159
0.022892
0.0227907
0.0229565
0.0231484
0.0233369
0.0231732
0.0234142
0.0230184
0.0230053
0.0230307
0.0233034
0.0226994
0.0229707
0.0228398
0.0225061
0.0229764
0.0229404
0.023034
0.0229918
0.0227586
0.0224169
0.022802
0.0224481
0.0221979
0.0224382
0.0226866
0.0222819
0.0225389
0.0228115
0.0229161
0.0230958
0.0230739
0.0232932
0.022278
0.0225917
0.022916
0.0221778
0.0225766
0.0229651
0.0232336
0.0235141
0.0233458
0.0236977
0.0231898
0.0231606
0.0234285
0.023434
0.0229734
0.0226061
0.0232641
0.0228874
0.023714
0.0237782
0.0239819
0.0241344
0.0236462
0.0232727
0.0240733
0.0237315
0.0221828
0.0224155
0.0215145
0.0216802
0.0220082
0.0213735
0.0207532
0.0208437
0.0199711
0.0200017
0.0206482
0.0198897
0.0219182
0.0212854
0.0219304
0.0212698
0.0205578
0.0197849
0.0205037
0.0196806
0.0192342
0.0192391
0.0185921
0.0186096
0.0191524
0.0184821
0.0180705
0.018132
0.017677
0.0177914
0.0179073
0.0174503
0.019014
0.0182889
0.0188462
0.0180442
0.0176367
0.0170904
0.0172967
0.0166378
0.0220552
0.0213415
0.0222947
0.0215095
0.0205072
0.0196082
0.0205863
0.0196
0.0226392
0.021773
0.0230717
0.0221231
0.0207496
0.0196766
0.020992
0.0198329
0.0186973
0.0178234
0.0186236
0.0177217
0.0170001
0.0162468
0.0169033
0.0161504
0.0186654
0.0178174
0.0188191
0.0181217
0.017157
0.0166281
0.0178136
0.0178805
0.0220532
0.0225008
0.0229231
0.0219584
0.0223538
0.0227376
0.023345
0.0237625
0.023154
0.0236267
0.0218764
0.0221035
0.0223651
0.0216974
0.0216892
0.0217774
0.0227319
0.0232703
0.0220803
0.0227062
0.0241509
0.0244347
0.0241581
0.0246433
0.0244947
0.0242281
0.0248905
0.0247486
0.0240074
0.0247404
0.0236458
0.0244533
0.0251495
0.025091
0.0247022
0.0245324
0.0213446
0.0211146
0.0210362
0.0208158
0.0204203
0.0201901
0.0212833
0.0219275
0.0202974
0.0205856
0.0202069
0.0197296
0.0193587
0.0196236
0.0191205
0.0185814
0.0191774
0.018655
0.0179634
0.0165003
0.0227297
0.0227683
0.0203526
0.0184322
0.0217624
0.020955
0.0154792
0.0144699
0.0168686
0.0144108
0.014175
0.0146803
0.0132733
0.0146554
0.0187691
0.0217622
0.023566
0.0225354
0.024106
0.0229843
0.0212798
0.0200049
0.0215723
0.0201149
0.0244725
0.0233263
0.0240156
0.0231825
0.0218584
0.0202572
0.0221701
0.0208611
0.0189575
0.0183928
0.0189269
0.0183382
0.0184302
0.0191684
0.0184713
0.0194559
0.0188342
0.017961
0.019359
0.0180517
0.0177413
0.0182059
0.0170463
0.0164701
0.020951
0.0215826
0.0159934
0.0187991
0.0225872
0.0230472
0.0222498
0.0252142
0.0171661
0.018912
0.0219946
0.0205069
0.0199645
0.0211218
0.0181054
0.0161376
0.0224494
0.020894
0.0269167
0.0265523
0.0184633
0.0162725
0.0231028
0.0186961
0.0227498
0.0245329
0.0152838
0.01644
0.0243486
0.0214049
0.0200564
0.0228818
0.0174004
0.0175548
0.0172386
0.0173981
0.0171163
0.0169311
0.0171807
0.0172975
0.0172352
0.0172514
0.0168977
0.0170609
0.0166625
0.0164075
0.0160663
0.0156591
0.0163366
0.0165852
0.0153855
0.0155609
0.0174284
0.017275
0.0177217
0.0173695
0.0174997
0.0181171
0.0180436
0.0175344
0.0183345
0.0177695
0.0187014
0.019079
0.0173866
0.0185771
0.0168701
0.0191342
0.0196506
0.0201649
0.0211238
0.0217813
0.0155101
0.0148075
0.0152971
0.0141021
0.0138298
0.0133729
0.0117746
0.0103431
0.0159959
0.0146894
0.0182167
0.0183604
0.0119624
0.0107171
0.0185562
0.0195608
0.0154561
0.0199398
0.0136952
0.0206088
0.0237347
0.0244308
0.0260847
0.0271965
0.0137808
0.017903
0.0193068
0.0154669
0.0219519
0.0255594
0.0122654
0.0124991
0.0186327
0.0181003
0.0189954
0.0185285
0.0193304
0.0196075
0.0194106
0.0190185
0.0198576
0.0195398
0.0199211
0.0202671
0.0203075
0.0204344
0.021636
0.0214741
0.0205869
0.0207844
0.0213669
0.0213624
0.0203169
0.020066
0.0207725
0.0205812
0.0206359
0.0210127
0.0212145
0.0210771
0.0216393
0.0215407
0.0213873
0.0217539
0.0210273
0.0213009
0.0214491
0.0216041