# vtk DataFile Version 2.0
Gerris simulation version 1.3.2 (131206-155120)
ASCII
DATASET UNSTRUCTURED_GRID

POINTS 1089 float
-0.5 0.46875 0
-0.46875 0.46875 0
-0.5 0.5 0
-0.46875 0.5 0
-0.4375 0.46875 0
-0.4375 0.5 0
-0.5 0.4375 0
-0.46875 0.4375 0
-0.4375 0.4375 0
-0.40625 0.46875 0
-0.40625 0.5 0
-0.375 0.46875 0
-0.375 0.5 0
-0.40625 0.4375 0
-0.375 0.4375 0
-0.5 0.40625 0
-0.46875 0.40625 0
-0.4375 0.40625 0
-0.5 0.375 0
-0.46875 0.375 0
-0.4375 0.375 0
-0.40625 0.40625 0
-0.375 0.40625 0
-0.40625 0.375 0
-0.375 0.375 0
-0.34375 0.46875 0
-0.34375 0.5 0
-0.3125 0.46875 0
-0.3125 0.5 0
-0.34375 0.4375 0
-0.3125 0.4375 0
-0.28125 0.46875 0
-0.28125 0.5 0
-0.25 0.46875 0
-0.25 0.5 0
-0.28125 0.4375 0
-0.25 0.4375 0
-0.34375 0.40625 0
-0.3125 0.40625 0
-0.34375 0.375 0
-0.3125 0.375 0
-0.28125 0.40625 0
-0.25 0.40625 0
-0.28125 0.375 0
-0.25 0.375 0
-0.5 0.34375 0
-0.46875 0.34375 0
-0.4375 0.34375 0
-0.5 0.3125 0
-0.46875 0.3125 0
-0.4375 0.3125 0
-0.40625 0.34375 0
-0.375 0.34375 0
-0.40625 0.3125 0
-0.375 0.3125 0
-0.5 0.28125 0
-0.46875 0.28125 0
-0.4375 0.28125 0
-0.5 0.25 0
-0.46875 0.25 0
-0.4375 0.25 0
-0.40625 0.28125 0
-0.375 0.28125 0
-0.40625 0.25 0
-0.375 0.25 0
-0.34375 0.34375 0
-0.3125 0.34375 0
-0.34375 0.3125 0
-0.3125 0.3125 0
-0.28125 0.34375 0
-0.25 0.34375 0
-0.28125 0.3125 0
-0.25 0.3125 0
-0.34375 0.28125 0
-0.3125 0.28125 0
-0.34375 0.25 0
-0.3125 0.25 0
-0.28125 0.28125 0
-0.25 0.28125 0
-0.28125 0.25 0
-0.25 0.25 0
-0.21875 0.46875 0
-0.21875 0.5 0
-0.1875 0.46875 0
-0.1875 0.5 0
-0.21875 0.4375 0
-0.1875 0.4375 0
-0.15625 0.46875 0
-0.15625 0.5 0
-0.125 0.46875 0
-0.125 0.5 0
-0.15625 0.4375 0
-0.125 0.4375 0
-0.21875 0.40625 0
-0.1875 0.40625 0
-0.21875 0.375 0
-0.1875 0.375 0
-0.15625 0.40625 0
-0.125 0.40625 0
-0.15625 0.375 0
-0.125 0.375 0
-0.09375 0.46875 0
-0.09375 0.5 0
-0.0625 0.46875 0
-0.0625 0.5 0
-0.09375 0.4375 0
-0.0625 0.4375 0
-0.03125 0.46875 0
-0.03125 0.5 0
0 0.46875 0
0 0.5 0
-0.03125 0.4375 0
0 0.4375 0
-0.09375 0.40625 0
-0.0625 0.40625 0
-0.09375 0.375 0
-0.0625 0.375 0
-0.03125 0.40625 0
0 0.40625 0
-0.03125 0.375 0
0 0.375 0
-0.21875 0.34375 0
-0.1875 0.34375 0
-0.21875 0.3125 0
-0.1875 0.3125 0
-0.15625 0.34375 0
-0.125 0.34375 0
-0.15625 0.3125 0
-0.125 0.3125 0
-0.21875 0.28125 0
-0.1875 0.28125 0
-0.21875 0.25 0
-0.1875 0.25 0
-0.15625 0.28125 0
-0.125 0.28125 0
-0.15625 0.25 0
-0.125 0.25 0
-0.09375 0.34375 0
-0.0625 0.34375 0
-0.09375 0.3125 0
-0.0625 0.3125 0
-0.03125 0.34375 0
0 0.34375 0
-0.03125 0.3125 0
0 0.3125 0
-0.09375 0.28125 0
-0.0625 0.28125 0
-0.09375 0.25 0
-0.0625 0.25 0
-0.03125 0.28125 0
0 0.28125 0
-0.03125 0.25 0
0 0.25 0
-0.5 0.21875 0
-0.46875 0.21875 0
-0.4375 0.21875 0
-0.5 0.1875 0
-0.46875 0.1875 0
-0.4375 0.1875 0
-0.40625 0.21875 0
-0.375 0.21875 0
-0.40625 0.1875 0
-0.375 0.1875 0
-0.5 0.15625 0
-0.46875 0.15625 0
-0.4375 0.15625 0
-0.5 0.125 0
-0.46875 0.125 0
-0.4375 0.125 0
-0.40625 0.15625 0
-0.375 0.15625 0
-0.40625 0.125 0
-0.375 0.125 0
-0.34375 0.21875 0
-0.3125 0.21875 0
-0.34375 0.1875 0
-0.3125 0.1875 0
-0.28125 0.21875 0
-0.25 0.21875 0
-0.28125 0.1875 0
-0.25 0.1875 0
-0.34375 0.15625 0
-0.3125 0.15625 0
-0.34375 0.125 0
-0.3125 0.125 0
-0.28125 0.15625 0
-0.25 0.15625 0
-0.28125 0.125 0
-0.25 0.125 0
-0.5 0.09375 0
-0.46875 0.09375 0
-0.4375 0.09375 0
-0.5 0.0625 0
-0.46875 0.0625 0
-0.4375 0.0625 0
-0.40625 0.09375 0
-0.375 0.09375 0
-0.40625 0.0625 0
-0.375 0.0625 0
-0.5 0.03125 0
-0.46875 0.03125 0
-0.4375 0.03125 0
-0.5 0 0
-0.46875 0 0
-0.4375 0 0
-0.40625 0.03125 0
-0.375 0.03125 0
-0.40625 0 0
-0.375 0 0
-0.34375 0.09375 0
-0.3125 0.09375 0
-0.34375 0.0625 0
-0.3125 0.0625 0
-0.28125 0.09375 0
-0.25 0.09375 0
-0.28125 0.0625 0
-0.25 0.0625 0
-0.34375 0.03125 0
-0.3125 0.03125 0
-0.34375 0 0
-0.3125 0 0
-0.28125 0.03125 0
-0.25 0.03125 0
-0.28125 0 0
-0.25 0 0
-0.21875 0.21875 0
-0.1875 0.21875 0
-0.21875 0.1875 0
-0.1875 0.1875 0
-0.15625 0.21875 0
-0.125 0.21875 0
-0.15625 0.1875 0
-0.125 0.1875 0
-0.21875 0.15625 0
-0.1875 0.15625 0
-0.21875 0.125 0
-0.1875 0.125 0
-0.15625 0.15625 0
-0.125 0.15625 0
-0.15625 0.125 0
-0.125 0.125 0
-0.09375 0.21875 0
-0.0625 0.21875 0
-0.09375 0.1875 0
-0.0625 0.1875 0
-0.03125 0.21875 0
0 0.21875 0
-0.03125 0.1875 0
0 0.1875 0
-0.09375 0.15625 0
-0.0625 0.15625 0
-0.09375 0.125 0
-0.0625 0.125 0
-0.03125 0.15625 0
0 0.15625 0
-0.03125 0.125 0
0 0.125 0
-0.21875 0.09375 0
-0.1875 0.09375 0
-0.21875 0.0625 0
-0.1875 0.0625 0
-0.15625 0.09375 0
-0.125 0.09375 0
-0.15625 0.0625 0
-0.125 0.0625 0
-0.21875 0.03125 0
-0.1875 0.03125 0
-0.21875 0 0
-0.1875 0 0
-0.15625 0.03125 0
-0.125 0.03125 0
-0.15625 0 0
-0.125 0 0
-0.09375 0.09375 0
-0.0625 0.09375 0
-0.09375 0.0625 0
-0.0625 0.0625 0
-0.03125 0.09375 0
0 0.09375 0
-0.03125 0.0625 0
0 0.0625 0
-0.09375 0.03125 0
-0.0625 0.03125 0
-0.09375 0 0
-0.0625 0 0
-0.03125 0.03125 0
0 0.03125 0
-0.03125 0 0
0 0 0
0.03125 0.46875 0
0.03125 0.5 0
0.0625 0.46875 0
0.0625 0.5 0
0.03125 0.4375 0
0.0625 0.4375 0
0.09375 0.46875 0
0.09375 0.5 0
0.125 0.46875 0
0.125 0.5 0
0.09375 0.4375 0
0.125 0.4375 0
0.03125 0.40625 0
0.0625 0.40625 0
0.03125 0.375 0
0.0625 0.375 0
0.09375 0.40625 0
0.125 0.40625 0
0.09375 0.375 0
0.125 0.375 0
0.15625 0.46875 0
0.15625 0.5 0
0.1875 0.46875 0
0.1875 0.5 0
0.15625 0.4375 0
0.1875 0.4375 0
0.21875 0.46875 0
0.21875 0.5 0
0.25 0.46875 0
0.25 0.5 0
0.21875 0.4375 0
0.25 0.4375 0
0.15625 0.40625 0
0.1875 0.40625 0
0.15625 0.375 0
0.1875 0.375 0
0.21875 0.40625 0
0.25 0.40625 0
0.21875 0.375 0
0.25 0.375 0
0.03125 0.34375 0
0.0625 0.34375 0
0.03125 0.3125 0
0.0625 0.3125 0
0.09375 0.34375 0
0.125 0.34375 0
0.09375 0.3125 0
0.125 0.3125 0
0.03125 0.28125 0
0.0625 0.28125 0
0.03125 0.25 0
0.0625 0.25 0
0.09375 0.28125 0
0.125 0.28125 0
0.09375 0.25 0
0.125 0.25 0
0.15625 0.34375 0
0.1875 0.34375 0
0.15625 0.3125 0
0.1875 0.3125 0
0.21875 0.34375 0
0.25 0.34375 0
0.21875 0.3125 0
0.25 0.3125 0
0.15625 0.28125 0
0.1875 0.28125 0
0.15625 0.25 0
0.1875 0.25 0
0.21875 0.28125 0
0.25 0.28125 0
0.21875 0.25 0
0.25 0.25 0
0.28125 0.46875 0
0.28125 0.5 0
0.3125 0.46875 0
0.3125 0.5 0
0.28125 0.4375 0
0.3125 0.4375 0
0.34375 0.46875 0
0.34375 0.5 0
0.375 0.46875 0
0.375 0.5 0
0.34375 0.4375 0
0.375 0.4375 0
0.28125 0.40625 0
0.3125 0.40625 0
0.28125 0.375 0
0.3125 0.375 0
0.34375 0.40625 0
0.375 0.40625 0
0.34375 0.375 0
0.375 0.375 0
0.40625 0.46875 0
0.40625 0.5 0
0.4375 0.46875 0
0.4375 0.5 0
0.40625 0.4375 0
0.4375 0.4375 0
0.46875 0.46875 0
0.46875 0.5 0
0.5 0.46875 0
0.5 0.5 0
0.46875 0.4375 0
0.5 0.4375 0
0.40625 0.40625 0
0.4375 0.40625 0
0.40625 0.375 0
0.4375 0.375 0
0.46875 0.40625 0
0.5 0.40625 0
0.46875 0.375 0
0.5 0.375 0
0.28125 0.34375 0
0.3125 0.34375 0
0.28125 0.3125 0
0.3125 0.3125 0
0.34375 0.34375 0
0.375 0.34375 0
0.34375 0.3125 0
0.375 0.3125 0
0.28125 0.28125 0
0.3125 0.28125 0
0.28125 0.25 0
0.3125 0.25 0
0.34375 0.28125 0
0.375 0.28125 0
0.34375 0.25 0
0.375 0.25 0
0.40625 0.34375 0
0.4375 0.34375 0
0.40625 0.3125 0
0.4375 0.3125 0
0.46875 0.34375 0
0.5 0.34375 0
0.46875 0.3125 0
0.5 0.3125 0
0.40625 0.28125 0
0.4375 0.28125 0
0.40625 0.25 0
0.4375 0.25 0
0.46875 0.28125 0
0.5 0.28125 0
0.46875 0.25 0
0.5 0.25 0
0.03125 0.21875 0
0.0625 0.21875 0
0.03125 0.1875 0
0.0625 0.1875 0
0.09375 0.21875 0
0.125 0.21875 0
0.09375 0.1875 0
0.125 0.1875 0
0.03125 0.15625 0
0.0625 0.15625 0
0.03125 0.125 0
0.0625 0.125 0
0.09375 0.15625 0
0.125 0.15625 0
0.09375 0.125 0
0.125 0.125 0
0.15625 0.21875 0
0.1875 0.21875 0
0.15625 0.1875 0
0.1875 0.1875 0
0.21875 0.21875 0
0.25 0.21875 0
0.21875 0.1875 0
0.25 0.1875 0
0.15625 0.15625 0
0.1875 0.15625 0
0.15625 0.125 0
0.1875 0.125 0
0.21875 0.15625 0
0.25 0.15625 0
0.21875 0.125 0
0.25 0.125 0
0.03125 0.09375 0
0.0625 0.09375 0
0.03125 0.0625 0
0.0625 0.0625 0
0.09375 0.09375 0
0.125 0.09375 0
0.09375 0.0625 0
0.125 0.0625 0
0.03125 0.03125 0
0.0625 0.03125 0
0.03125 0 0
0.0625 0 0
0.09375 0.03125 0
0.125 0.03125 0
0.09375 0 0
0.125 0 0
0.15625 0.09375 0
0.1875 0.09375 0
0.15625 0.0625 0
0.1875 0.0625 0
0.21875 0.09375 0
0.25 0.09375 0
0.21875 0.0625 0
0.25 0.0625 0
0.15625 0.03125 0
0.1875 0.03125 0
0.15625 0 0
0.1875 0 0
0.21875 0.03125 0
0.25 0.03125 0
0.21875 0 0
0.25 0 0
0.28125 0.21875 0
0.3125 0.21875 0
0.28125 0.1875 0
0.3125 0.1875 0
0.34375 0.21875 0
0.375 0.21875 0
0.34375 0.1875 0
0.375 0.1875 0
0.28125 0.15625 0
0.3125 0.15625 0
0.28125 0.125 0
0.3125 0.125 0
0.34375 0.15625 0
0.375 0.15625 0
0.34375 0.125 0
0.375 0.125 0
0.40625 0.21875 0
0.4375 0.21875 0
0.40625 0.1875 0
0.4375 0.1875 0
0.46875 0.21875 0
0.5 0.21875 0
0.46875 0.1875 0
0.5 0.1875 0
0.40625 0.15625 0
0.4375 0.15625 0
0.40625 0.125 0
0.4375 0.125 0
0.46875 0.15625 0
0.5 0.15625 0
0.46875 0.125 0
0.5 0.125 0
0.28125 0.09375 0
0.3125 0.09375 0
0.28125 0.0625 0
0.3125 0.0625 0
0.34375 0.09375 0
0.375 0.09375 0
0.34375 0.0625 0
0.375 0.0625 0
0.28125 0.03125 0
0.3125 0.03125 0
0.28125 0 0
0.3125 0 0
0.34375 0.03125 0
0.375 0.03125 0
0.34375 0 0
0.375 0 0
0.40625 0.09375 0
0.4375 0.09375 0
0.40625 0.0625 0
0.4375 0.0625 0
0.46875 0.09375 0
0.5 0.09375 0
0.46875 0.0625 0
0.5 0.0625 0
0.40625 0.03125 0
0.4375 0.03125 0
0.40625 0 0
0.4375 0 0
0.46875 0.03125 0
0.5 0.03125 0
0.46875 0 0
0.5 0 0
-0.5 -0.03125 0
-0.46875 -0.03125 0
-0.4375 -0.03125 0
-0.5 -0.0625 0
-0.46875 -0.0625 0
-0.4375 -0.0625 0
-0.40625 -0.03125 0
-0.375 -0.03125 0
-0.40625 -0.0625 0
-0.375 -0.0625 0
-0.5 -0.09375 0
-0.46875 -0.09375 0
-0.4375 -0.09375 0
-0.5 -0.125 0
-0.46875 -0.125 0
-0.4375 -0.125 0
-0.40625 -0.09375 0
-0.375 -0.09375 0
-0.40625 -0.125 0
-0.375 -0.125 0
-0.34375 -0.03125 0
-0.3125 -0.03125 0
-0.34375 -0.0625 0
-0.3125 -0.0625 0
-0.28125 -0.03125 0
-0.25 -0.03125 0
-0.28125 -0.0625 0
-0.25 -0.0625 0
-0.34375 -0.09375 0
-0.3125 -0.09375 0
-0.34375 -0.125 0
-0.3125 -0.125 0
-0.28125 -0.09375 0
-0.25 -0.09375 0
-0.28125 -0.125 0
-0.25 -0.125 0
-0.5 -0.15625 0
-0.46875 -0.15625 0
-0.4375 -0.15625 0
-0.5 -0.1875 0
-0.46875 -0.1875 0
-0.4375 -0.1875 0
-0.40625 -0.15625 0
-0.375 -0.15625 0
[...]
POINT_DATA 1089
SCALARS T float
LOOKUP_TABLE default
0
0
0
0
0
0
0
0
0
0
0
0
0
0
0
0
0
0
0
0
0
0
0
0
0
0
0
0
0
0
0
0
0
0
0
0
0
0
0
0
0
0
0
0
0
0
0
0
0
0
0
0
0
0
0
0
0
0
0
0
0
0
0
0
0
0
0
0
0
0
0
0
0
0
0
0
0
0
0
0
0
0
0
0
0
0
0
0
0
0
0
0
0
0
0
0
0
0
0
0
0
0
0
0
0
0
0
0
0
0
0
0
0
0
0
0
0
0
0
0
0
0
0
0
0
0
0
0
0
0
0
0
0
0
0
0
0
0
0
0
0
0
0
0
0
0
0
0
0
0
0
0
0
0
0
0
0
0
0
0
0
0
0
0
0
0
0
0
0
0
0
0
0
0
0
0
0
0
0
0
0
0
0
0
0
0
0
0
0
0
0
0
0
0
0
0
0
0
0
0
0
0
0
0
0
0
0
0
0
0
0
0
0
0
0
0
0.00171556
0
0
0
0
0.00148657
0.160341
0.0864078
0.493547
0
0
0
0
0
0
0
0
0
0
0
0
0
0
0
0
0
0
0
0
0
0
0
0
0
0
0
0
0
0
0
0
0
0.00705401
0.113502
0.35247
0.0752876
0.173306
0.558917
0.673306
0.520641
0.845416
0.907139
1
0.983629
1
1
1
0.209618
0.171343
0.709618
0.671343
0.0752457
0.00844753
0.555264
0.346357
1
1
1
1
0.980018
0.83791
1
1
0
0
0
0
0
0
0
0
0
0
0
0
0
0
0
0
0
0
0
0
0
0
0
0
0
0
0
0
0
0
0
0
0
0
0
0
0
0
0
0
0
0
0
0
0
0
0
0
0
0
0
0
0
0
0
0
0
0.0448947
0.0373501
0.320762
0.202507
0.334213
0.691024
0.834213
0.172729
0.661246
0.280064
0.780064
0.988517
1
1
1
0
0
0
0
0
0
0
0
0
0
0
0
0
0
0
0
0
0
0
0
0
0
0
0
0
0
0
0
0
0
0
0
0
0
0
0
0
0
0
0
0.277161
0.102679
0.777161
0.483297
0.00211843
0
0.132737
0
1
0.866724
1
0.979022
0.369652
0.00292751
0.48498
0.00595743
0
0
0
0
0
0
0
0
0
0
0
0
0
0
0
0
0
0
0
0
0
0
0
0
0
0
0
0
0
0
0
0
0.203355
0.702115
0.0586694
0.390016
0.998761
1
0.782792
0.919259
0
0.0825857
0
0
0.284031
0.419259
0
0
0
0
0.109302
0.00141021
0
0
0
0
0.505904
0.148298
0.896602
0.470218
0.000284996
0
0.0736157
0
0
0
0
0
0
0
0
0
0
0
0
0
0
0
0
0.00954559
1
0.897946
0.858181
0.55555
0.400976
0.00302992
0.165183
0
0.358181
0.15052
0
0
0.0101535
0
0
0
0
0
0
0
0
0
0
0
0
0
0
0
0
0
0
0
0
0
0
0
0
0
0
0
0
0
0.11516
0.218991
0
0
0.132308
0.0189318
0
0
0
0
0
0
0
0
0
0
0
0
0
0
0
0
0
0
0
0
0
0
0
0
0
0
0
0
0
0
0
0
0
0
0
0
0
0
0
0
0.266446
0.766446
0.39807
0.89807
0
0
0
0
0.411564
0.911564
0.309782
0.809782
0
0
0
0
0
0
0
0
0
0
0
0
0
0
0
0
0
0
0
0
0
0
0
0
0.123496
0.580059
0.00873368
0.238791
0
0
0
0
0
0.0234939
0
0
1
1
1
1
1
1
1
1
1
1
1
1
1
1
1
1
1
1
1
1
1
1
1
1
1
1
1
1
1
1
1
1
0.956563
1
0.668756
0.938699
1
1
1
1
0.212871
0.511886
0.000678039
0.0731867
0.728071
0.851954
0.228071
0.351954
1
1
1
1
1
1
1
0.948682
0.89511
0.861139
0.39511
0.361139
0.746009
0.536202
0.246009
0.0875198
0
0
0
0
0
0
0
0
0
0
0
0
0
0
0
0
0
0
0
0
0
0
0
0
0
0
0
0
0
0
0
0
0
0
0
0
0
0
0
0
0
0
0
0
0
0
0
0
0
0
0
0
0
0
0
0
0
0
0
0
0
0
0
0
0
0
0
0
0
0
0
0
0
0
0
0
0
0
0
0
0
0
0
0
0
0
0
0
0
0
0
0
0
0
0
0
0
0
0
0
0
0
0
0
0
0
0
0
0
0
0
0
0
0
0
0
0
0
0
0
0
0
0
0
0
0
0
0
0
0
0
0
0
0
0
0
1
0.745285
1
0.881692
0.245285
0
0.381692
0
1
0.902124
1
0.810085
0.402124
0
0.310085
0
0
0
0
0
0
0.17283
0
0.386078
0
0
0
0
0
0.360915
0
0.141065
0.962204
0.591985
0.692986
0.256386
0.129781
0
0.012082
0
0.234713
0.0320999
0.00393071
0
0
0
0
0
0
0
0
0
0
0.00294386
0
0
0
0
0
0
0
0
0
0
0.528444
0.718991
0.886078
1
0.570943
0.209598
0.937776
0.441971
0.860915
1
0.458076
0.642626
0.916149
0.419284
0.497061
0.172416
0.00203082
0
0.00419518
0
0
0
0
0
0.00313467
0
0.000970308
0
0
0
0
0
0.0699541
0.142626
0
0
0.0800526
0.00443736
0
0
0
0
0
0
0
0
0
0
0
0
0
0
0
0
0
0
0
0
0
0
0
0
0
0
0
0
0
0
0
0
0
0
0
0
0
0
0
0
0
0
0
0
0
0
0
0
0
0
0
0
0
0
0
0
0
0
0
0
0
0
0
0
0
0
0
0
0
0
0
0
0
0
0
0
0
0
0
0
0
0
0
0
0
0
0
0
0
0
0
0
0
0
0
0
0
0
0
0
0
0
0
0
0
0
0
0
0
0
0
0
0
0
0
0
0
0
0
0
0
0
0
0
0
0
0
0
0
0
0
0
0
0
0
0
0
0
0
0
0
0
0
0
0
0
0
0
0
0
0
0
0
0

SCALARS P float
LOOKUP_TABLE default
-0.0112087
-0.0111561
-0.0112233
-0.0111709
-0.0110891
-0.0111028
-0.0112146
-0.0111604
-0.0110929
-0.0110074
-0.0110185
-0.0109118
-0.0109184
-0.0110118
-0.0109179
-0.0112399
-0.0111829
-0.0111132
-0.011285
-0.0112235
-0.0111498
-0.0110306
-0.0109356
-0.0110635
-0.0109648
-0.0108041
-0.0108042
-0.0106875
-0.0106789
-0.0108131
-0.0107005
-0.0105663
-0.0105469
-0.0104462
-0.0104142
-0.0105844
-0.0104701
-0.0108301
-0.010717
-0.010855
-0.0107371
-0.0106005
-0.0104859
-0.0106147
-0.0104936
-0.0113465
-0.0112804
-0.0112018
-0.011426
-0.0113541
-0.0112698
-0.0111103
-0.0110056
-0.011172
-0.0110597
-0.0115167
-0.0114409
-0.0113525
-0.0116167
-0.0115411
-0.0114516
-0.0112491
-0.0111287
-0.0113445
-0.0112169
-0.0108884
-0.0107613
-0.0109322
-0.0107918
-0.0106276
-0.0104936
-0.0106409
-0.0104868
-0.0109889
-0.0108314
-0.0110639
-0.0108862
-0.0106573
-0.0104746
-0.0106819
-0.0104603
-0.0103341
-0.010289
-0.0102375
-0.01018
-0.0103641
-0.010273
-0.0101636
-0.0100961
-0.0101184
-0.0100452
-0.0102034
-0.0101605
-0.0103793
-0.0102878
-0.0103801
-0.010282
-0.0102176
-0.0101741
-0.0102063
-0.0101591
-0.0101054
-0.0100316
-0.0101254
-0.0100565
-0.0101475
-0.0101648
-0.0101757
-0.0101167
-0.0102514
-0.0102054
-0.0102103
-0.0102798
-0.0101605
-0.0101773
-0.0101445
-0.0101633
-0.0102225
-0.0102917
-0.0102132
-0.0102896
-0.0103662
-0.0102546
-0.0103369
-0.0102034
-0.0101677
-0.0101133
-0.010098
-0.0100315
-0.0102915
-0.0101249
-0.0102295
-0.0100138
-0.00999095
-0.00990535
-0.00983651
-0.00972084
-0.010097
-0.0101198
-0.0100125
-0.0100427
-0.0101795
-0.010269
-0.0101196
-0.0102332
-0.00988175
-0.00992257
-0.009689
-0.00974442
-0.0100254
-0.0101754
-0.00988495
-0.0100874
-0.0117221
-0.0116537
-0.0115682
-0.0118399
-0.0117833
-0.0117069
-0.0114613
-0.0113292
-0.0116057
-0.0114744
-0.011979
-0.0119349
-0.0118719
-0.012135
-0.0121074
-0.0120652
-0.0117826
-0.01166
-0.0119991
-0.0118995
-0.0111635
-0.0109635
-0.0112997
-0.011078
-0.0107223
-0.0104495
-0.010794
-0.0104547
-0.0114841
-0.0112457
-0.0117388
-0.011499
-0.0109166
-0.0104939
-0.0111323
-0.0106106
-0.0123061
-0.0122977
-0.0122838
-0.0124819
-0.0124982
-0.0125235
-0.012254
-0.0121965
-0.0125488
-0.0125636
-0.0126455
-0.0126907
-0.0127639
-0.012785
-0.01286
-0.0129863
-0.0128621
-0.0129809
-0.0131713
-0.0134236
-0.0120776
-0.011868
-0.0125314
-0.0124099
-0.011497
-0.0108695
-0.0121105
-0.0113169
-0.0130927
-0.0131711
-0.0137473
-0.0141697
-0.0130308
-0.00257263
-0.00850987
0.0179204
-0.0101514
-0.00986455
-0.0100605
-0.00966806
-0.0096228
-0.00946085
-0.00932765
-0.00909169
-0.00996417
-0.00941858
-0.00988697
-0.00910896
-0.00893184
-0.00858274
-0.00838791
-0.00784646
-0.00941543
-0.00949147
-0.00902305
-0.00912816
-0.00968837
-0.00997049
-0.00940847
-0.00980668
-0.00847767
-0.00862318
-0.00767202
-0.00787878
-0.00902848
-0.00959386
-0.00849267
-0.0093481
-0.00985836
-0.00840169
-0.00393108
0.0100347
-0.00412765
0.0012613
0.0211485
0.0268805
0.0194209
0.0374135
0.0432464
0.0474902
0.0442233
0.0445865
0.0465095
0.045893
0.00315927
0.00104237
0.0286025
0.0267004
-0.00435304
-0.0087077
0.0208207
0.00928541
0.0444143
0.0446215
0.0456924
0.0459107
0.0440961
0.036947
0.0465543
0.0476406
-0.0103455
-0.0103142
-0.0104514
-0.0104342
-0.0103671
-0.0104666
-0.0105633
-0.0105581
-0.0106762
-0.01068
-0.0105726
-0.0106801
-0.0103785
-0.0104764
-0.0103841
-0.010489
-0.0105778
-0.0106786
-0.0105931
-0.0106921
-0.0107895
-0.0107981
-0.0108961
-0.0109066
-0.0107914
-0.0108978
-0.0110085
-0.0110092
-0.0111041
-0.0110973
-0.0110259
-0.0111303
-0.0107845
-0.0108858
-0.0107843
-0.0108517
-0.0110557
-0.0111851
-0.0110517
-0.0112082
-0.0103764
-0.0104913
-0.0103682
-0.0105102
-0.0105916
-0.0106749
-0.0106297
-0.0107301
-0.0103522
-0.0105365
-0.0103236
-0.0105639
-0.0106975
-0.0108248
-0.0107836
-0.0109566
-0.0107012
-0.00549532
-0.00622998
0.0273875
0.012816
0.0281085
0.0710399
0.0876933
0.00983898
0.0679433
0.0225809
0.0821956
0.106658
0.107834
0.108037
0.107718
-0.0111722
-0.0111669
-0.0112188
-0.0112186
-0.0111919
-0.011232
-0.0112481
-0.0112534
-0.011271
-0.0112774
-0.0112597
-0.0112867
-0.0112186
-0.0112419
-0.0112056
-0.011222
-0.011277
-0.0113192
-0.0112945
-0.0113704
-0.0112766
-0.0112859
-0.0112696
-0.0112807
-0.0112902
-0.0112812
-0.0112466
-0.0112598
-0.0112087
-0.0112232
-0.0112551
-0.0112146
-0.0113231
-0.0113132
-0.0113771
-0.0113673
-0.0112837
-0.0112399
-0.0113334
-0.011285
0.0210992
0.000574048
0.0804848
0.0452161
-0.0110949
-0.0114281
0.00384017
-0.011548
0.107598
0.0909375
0.107587
0.104618
0.031545
-0.0114997
0.0453478
-0.0114011
-0.011444
-0.0114366
-0.0115536
-0.0115326
-0.0113993
-0.0113465
-0.0114861
-0.011426
-0.0116999
-0.0116411
-0.011823
-0.0117443
-0.011583
-0.0115167
-0.0116836
-0.0116167
-0.0102957
-0.010623
-0.0102477
-0.01067
-0.01094
-0.0112367
-0.0110643
-0.0114314
-0.0101855
-0.0107163
-0.0101796
-0.0108484
-0.0111688
-0.0115389
-0.0113584
-0.0117256
0.0132599
0.0732218
-0.00445754
0.0356936
0.108267
0.107702
0.0826662
0.0981527
-0.0118342
-0.00187012
-0.011973
-0.0121867
0.0224357
0.0384438
-0.0121725
-0.0118943
-0.0102367
-0.011088
-0.0047089
-0.011615
-0.0116637
-0.0120171
-0.0122067
-0.0124618
0.0180014
-0.0037296
0.0423787
0.0158051
-0.0130144
-0.0130883
-0.00944407
-0.0138628
-0.0122213
-0.0123475
-0.0125672
-0.0125934
-0.0123268
-0.0121686
-0.0125298
-0.0124237
-0.0130285
-0.0129329
-0.0135349
-0.0132738
-0.012789
-0.012652
-0.0130196
-0.0110402
0.107386
0.0947787
0.0903825
0.0541146
0.035423
-0.0116177
0.00767573
-0.0118273
0.0309659
0.00618437
-0.0117873
-0.0118888
-0.0106047
-0.0119318
-0.0120085
-0.012096
-0.0118575
-0.0118194
-0.0118872
-0.0118973
-0.0117773
-0.0117221
-0.0118788
-0.0118399
-0.0119939
-0.0120144
-0.0121377
-0.0121539
-0.0120064
-0.011979
-0.0121512
-0.012135
-0.0120867
-0.012165
-0.0123265
-0.0124172
-0.0122614
-0.0122976
-0.0125445
-0.0125224
-0.0124776
-0.0126337
0.00811248
0.0265234
-0.0128582
-0.0127584
0.0104513
-0.00982833
-0.0123147
-0.0123172
-0.0125054
-0.0124877
-0.0123132
-0.0123061
-0.0124786
-0.0124819
-0.0126899
-0.0126475
-0.0128784
-0.0127936
-0.0126302
-0.0126455
-0.0127596
-0.012785
-0.012871
-0.0129746
-0.0131497
-0.0128885
-0.0130153
-0.0132207
-0.0134161
-0.0137937
-0.0135354
-0.013983
-0.0128394
-0.0129736
-0.0131816
-0.0127454
-0.012862
-0.0130381
-0.013495
-0.0139368
-0.0132928
-0.0136421
-0.0143394
-0.0151149
-0.0146697
-0.0156441
0.00303227
0.0362523
0.0119909
0.0457083
-0.0146141
-0.0155803
-0.0141289
-0.0148374
0.0129884
0.0465988
0.00634318
0.0391308
-0.0126003
-0.0126912
-0.0128204
-0.0124219
-0.0124821
-0.0125576
-0.0129926
-0.0132169
-0.0126429
-0.0127339
-0.0122416
-0.0122682
-0.0122928
-0.0120574
-0.0120575
-0.0120442
-0.0123044
-0.0122878
-0.012006
-0.0119274
-0.0134742
-0.0138462
-0.0127907
-0.0128207
-0.00549752
0.0236258
-0.0120161
0.00285437
-0.0122063
-0.0120009
-0.0117822
-0.0115157
-0.0116136
-0.00933508
-0.0111185
-0.0103586
0.0499671
0.0484394
0.0503889
0.0489014
0.0473991
0.0467893
0.0478595
0.0472598
0.0503009
0.0488826
0.0496072
0.0483288
0.0478776
0.0473155
0.0474311
0.0469517
0.0465984
0.0468056
0.0470727
0.047281
0.0474223
0.048456
0.0478847
0.0488781
0.0471509
0.0473683
0.046833
0.0470683
0.0479681
0.0489443
0.0476658
0.0486073
0.0460658
0.0474382
0.028437
0.0427481
0.0466232
0.0462199
0.0453601
0.0451211
0.002286
0.0190071
-0.00937147
-0.00454128
0.0303147
0.036483
0.00417629
0.0106179
0.0461469
0.0464007
0.0451214
0.0454058
0.0470046
0.0479092
0.0459713
0.0438548
0.0386382
0.0370919
0.0128047
0.0109532
0.0313799
0.0201951
0.00464896
-0.004422
-0.0118882
-0.0118662
-0.011824
-0.0117328
-0.0116961
-0.0116363
-0.0117509
-0.0116329
-0.011545
-0.0114119
-0.0115979
-0.0115516
-0.0114816
-0.0114823
-0.011431
-0.0113569
-0.0113819
-0.0112452
-0.0112559
-0.0111236
-0.0114507
-0.0111659
-0.0112244
-0.01096
-0.0107818
-0.0101948
-0.0106236
-0.010165
-0.0110637
-0.0108259
-0.0109559
-0.0107481
-0.0105372
-0.01018
-0.0105054
-0.0102245
-0.0113876
-0.0113342
-0.0112597
-0.0113128
-0.0112592
-0.0111864
-0.0111614
-0.0110371
-0.0110929
-0.0109776
-0.011258
-0.0112051
-0.0111348
-0.0112232
-0.0111709
-0.0111028
-0.0110463
-0.0109394
-0.0110185
-0.0109184
-0.010885
-0.0107044
-0.0108406
-0.0106832
-0.0105003
-0.010276
-0.0105104
-0.0103276
-0.0108153
-0.0106764
-0.0108042
-0.0106789
-0.0105274
-0.0103743
-0.0105469
-0.0104142
-0.00952581
-0.00876257
-0.00965548
-0.00912292
-0.00805578
-0.00766164
-0.00865412
-0.00837665
-0.00979994
-0.0094232
-0.00993427
-0.00965818
-0.00910123
-0.00891019
-0.00942938
-0.00929163
-0.00755353
-0.00782293
-0.00830259
-0.00849112
-0.00840175
-0.00916273
-0.00888964
-0.00940947
-0.00886376
-0.00898636
-0.00925927
-0.00934559
-0.00925226
-0.00961249
-0.00953383
-0.0097915
-0.0100508
-0.00984334
-0.0101486
-0.00998759
-0.00967609
-0.00957554
-0.00986028
-0.00978347
-0.0102275
-0.010098
-0.010289
-0.01018
-0.00999728
-0.00993641
-0.0100961
-0.0100452
-0.00955238
-0.00961281
-0.00976533
-0.00980926
-0.00974699
-0.00993496
-0.00990873
-0.0100503
-0.0099213
-0.00995377
-0.0100316
-0.0100565
-0.0100294
-0.0101391
-0.0101167
-0.0102054
0.0498671
0.0339152
0.0502212
0.0434536
0.00108078
-0.0146481
0.0101868
-0.015106
0.0502586
0.0449337
0.0499272
0.0385366
0.0116597
-0.015074
0.00568528
-0.0145862
-0.0140235
-0.0135871
-0.0143369
-0.0138725
-0.0132441
0.0187305
-0.0136206
0.0577626
-0.0142521
-0.0136896
-0.0138545
-0.0132521
-0.0133284
0.0536073
-0.0127596
0.0138152
0.0468007
0.0239932
0.0296354
0.00318857
-0.00561908
-0.0137831
-0.0122689
-0.0129394
0.00277483
-0.00969592
-0.00986459
-0.0109236
-0.0120634
-0.0122317
-0.0114315
-0.0117124
-0.0133305
-0.0129353
-0.0127605
-0.0125494
-0.0125992
-0.0114965
-0.0123409
-0.0120997
-0.0122509
-0.0121914
-0.0118436
-0.0118864
-0.0121022
-0.0119892
-0.0118843
-0.011856
0.0832104
0.117502
0.14884
0.169205
0.0901074
0.0242982
0.157517
0.0665716
0.144225
0.168682
0.07148
0.104512
0.153576
0.0627808
0.0777729
0.0184325
-0.0127064
-0.0128766
-0.0124914
-0.0128453
-0.0128336
-0.012871
-0.012831
-0.0128885
-0.0125174
-0.0127565
-0.0125439
-0.0126594
-0.0127701
-0.0128394
-0.0126813
-0.0127454
0.00132853
0.0143843
-0.0118883
-0.012047
0.00240715
-0.011621
-0.0122408
-0.0122525
-0.0118938
-0.0119746
-0.0118316
-0.0118801
-0.0120827
-0.0121144
-0.0119419
-0.0119737
-0.0124838
-0.0125031
-0.0123055
-0.0123361
-0.0125402
-0.0126003
-0.0123741
-0.0124219
-0.0121604
-0.0121881
-0.0120086
-0.0120314
-0.0122143
-0.0122416
-0.0120473
-0.0120574
-0.00995305
-0.0106085
-0.00995983
-0.010449
-0.0110582
-0.0113532
-0.0108272
-0.0111054
-0.0100095
-0.0103826
-0.0100816
-0.0103665
-0.0106938
-0.0109409
-0.0106197
-0.0108335
-0.0115301
-0.0116291
-0.0112973
-0.0114254
-0.0116816
-0.0117058
-0.0115105
-0.0115663
-0.0111274
-0.0112645
-0.0110062
-0.0111419
-0.0113652
-0.0114386
-0.0112479
-0.0113297
-0.0101524
-0.0103741
-0.0102174
-0.010393
-0.0105809
-0.0107638
-0.0105633
-0.0107201
-0.0102714
-0.010414
-0.0103142
-0.0104342
-0.010557
-0.0106932
-0.0105581
-0.01068
-0.0109196
-0.0110484
-0.0108598
-0.0109804
-0.0111542
-0.0112392
-0.0110837
-0.0111692
-0.01082
-0.0109334
-0.0107981
-0.0109066
-0.011035
-0.0111207
-0.0110092
-0.0110973
-0.0117238
-0.0117683
-0.0116087
-0.0116542
-0.0118158
-0.0118476
-0.0116953
-0.0117248
-0.0114956
-0.011545
-0.0113939
-0.0114458
-0.0115851
-0.0116136
-0.0114855
-0.011513
-0.0118747
-0.0118902
-0.0117457
-0.011755
-0.0118946
-0.0118882
-0.0117508
-0.0117328
-0.0116306
-0.0116349
-0.0115275
-0.0115285
-0.0116243
-0.0115979
-0.0115138
-0.0114823
-0.011307
-0.0113606
-0.0112382
-0.0112921
-0.0114004
-0.0114273
-0.0113313
-0.0113576
-0.01119
-0.0112436
-0.0111669
-0.0112186
-0.0112814
-0.0113068
-0.0112534
-0.0112774
-0.0114402
-0.011439
-0.0113694
-0.0113668
-0.0114218
-0.0113876
-0.0113481
-0.0113128
-0.0113173
-0.0113136
-0.0112859
-0.0112807
-0.0112939
-0.011258
-0.0112598
-0.0112233

SCALARS U float
LOOKUP_TABLE default
0.0202893
0.0203868
0.0199888
0.0201089
0.0204874
0.0202357
0.020597
0.0206578
0.0207241
0.0205884
0.02036
0.0206863
0.0204785
0.020794
0.0208639
0.0208787
0.0209023
0.0209332
0.0210977
0.0210947
0.0210966
0.0209704
0.0210103
0.0211045
0.0211159
0.0207763
0.0205875
0.0208512
0.0206814
0.0209286
0.0209795
0.0209018
0.020753
0.0209182
0.0207941
0.0210064
0.0209982
0.021048
0.0210745
0.0211277
0.0211313
0.0210788
0.0210487
0.021116
0.0210687
0.0212314
0.0212173
0.0211987
0.0212708
0.021261
0.0212279
0.0211808
0.0211649
0.0211844
0.0211378
0.021268
0.021251
0.0211912
0.0212534
0.0212024
0.0210924
0.021109
0.0210176
0.0209496
0.0207917
0.0211509
0.0211321
0.0210934
0.0210485
0.0210995
0.0210404
0.0209984
0.0209323
0.0209299
0.0208486
0.0206413
0.0205087
0.0207773
0.0207089
0.0204117
0.020347
0.0208915
0.0207967
0.0208165
0.0207555
0.0209448
0.0208405
0.0206949
0.0206741
0.020535
0.0205614
0.0206858
0.0204885
0.0209731
0.0208454
0.0209773
0.0208344
0.0206646
0.0204382
0.0206373
0.0203934
0.0203497
0.0204295
0.0201549
0.0202911
0.0202621
0.0200247
0.0199659
0.0201562
0.0197966
0.0200324
0.0197957
0.0195927
0.0201809
0.019913
0.0201188
0.0198368
0.0196572
0.0194328
0.0195734
0.0193483
0.0209419
0.0207962
0.0208377
0.0207071
0.0205978
0.0203536
0.0205296
0.0203104
0.0206325
0.0205422
0.0203056
0.0202851
0.0204154
0.0202522
0.0202418
0.0201682
0.0200811
0.0198065
0.0200667
0.0198276
0.0195591
0.0193604
0.0196272
0.019496
0.0200659
0.0198869
0.0200697
0.0199697
0.0197526
0.0197027
0.0199033
0.0199143
0.0212583
0.0211321
0.0209404
0.0212384
0.0210215
0.0207344
0.0207103
0.0204613
0.0204044
0.0200511
0.0211214
0.0208408
0.0204758
0.0208969
0.020599
0.0201984
0.0200584
0.0196091
0.0197325
0.0192148
0.0202286
0.0200325
0.0197283
0.0194634
0.0199101
0.0198527
0.0193066
0.0192132
0.0192017
0.0188514
0.0187225
0.0181987
0.0185865
0.0182613
0.0175642
0.0165073
0.0205575
0.0203106
0.0199381
0.0201958
0.0200532
0.0197763
0.0194798
0.0189257
0.0193979
0.018855
0.0198881
0.0198773
0.0197532
0.0196845
0.0198254
0.0199193
0.0195314
0.019091
0.0199787
0.0199056
0.0183099
0.0174031
0.0180685
0.0165453
0.0159296
0.0136206
0.0138899
0.0112501
0.0182537
0.0163739
0.019586
0.0186971
0.0133911
0.0129903
0.0179093
0.0202715
0.0198523
0.0199216
0.0191875
0.0193127
0.0199884
0.0200437
0.0195029
0.0197768
0.0179603
0.0180119
0.0154214
0.0152661
0.0183663
0.0190982
0.0160055
0.0176527
0.02008
0.0200928
0.0200949
0.0203552
0.0201013
0.0201419
0.0205064
0.0205393
0.0200841
0.0209873
0.0199311
0.0221444
0.0215576
0.0216368
0.0237794
0.0242647
0.0116727
0.0120106
0.0108995
0.0135826
0.0139593
0.0165577
0.0168027
0.0184489
0.0167267
0.0205612
0.0244007
0.0253091
0.0219763
0.0210283
0.0235148
0.0212768
0.0195722
0.0225708
0.0190151
0.0195185
0.0253938
0.0271363
0.0210024
0.023688
0.0187189
0.0163517
0.0189839
0.0167186
0.0149126
0.0158593
0.0143427
0.0126066
0.0196576
0.0199239
0.0195569
0.0198338
0.0194303
0.0193169
0.0194991
0.0197624
0.0194965
0.019715
0.0192615
0.0192853
0.0192545
0.0191272
0.0191776
0.0190566
0.0190616
0.0190795
0.018991
0.0189766
0.019545
0.0196852
0.0196787
0.0196832
0.0193966
0.0196988
0.01981
0.019675
0.0198024
0.0196056
0.0200142
0.0200479
0.0192267
0.0197672
0.0191162
0.019755
0.0203225
0.0202947
0.0203399
0.0203119
0.0192287
0.0191434
0.0194601
0.0195096
0.0191154
0.0190791
0.0196892
0.0199223
0.0197637
0.0199348
0.0200088
0.0201741
0.0202287
0.0205996
0.0203606
0.0205125
0.0192813
0.0195919
0.0206316
0.0210388
0.019493
0.0197942
0.0202231
0.0199007
0.020985
0.0210338
0.0199092
0.0189693
0.0207604
0.0204423
0.019505
0.0204227
0.0197539
0.0195263
0.0197566
0.0194863
0.0199853
0.0200167
0.0198238
0.0195013
0.01992
0.0195599
0.0201562
0.0203076
0.0200876
0.0201071
0.0200932
0.0200172
0.0203744
0.0206451
0.0203892
0.0208396
0.0200099
0.0196424
0.0201026
0.0197455
0.0204032
0.0204784
0.0201943
0.0198602
0.0202893
0.0199772
0.0205382
0.020597
0.0207648
0.0208278
0.0210099
0.0210835
0.0208559
0.0208787
0.021097
0.0210977
0.0200738
0.0197945
0.0198183
0.0194768
0.020209
0.0208607
0.0200122
0.0206966
0.020223
0.0203463
0.0210964
0.0217274
0.0204688
0.0206441
0.0212341
0.020806
0.0210913
0.0212033
0.0209903
0.0211634
0.0212306
0.0212314
0.0212434
0.0212708
0.0209385
0.0211095
0.0209854
0.0211121
0.021227
0.021268
0.0212295
0.0212534
0.0202067
0.0202982
0.0204431
0.0203009
0.0204012
0.0204905
0.0202198
0.0202255
0.0212125
0.0205836
0.0233351
0.0217268
0.02014
0.0199781
0.0205175
0.0200241
0.0201003
0.0194638
0.0203139
0.0202652
0.0199786
0.0208756
0.0205157
0.0210616
0.0201664
0.0203961
0.0201785
0.0206599
0.0204694
0.0206944
0.0207961
0.0206853
0.0264607
0.0239113
0.0256403
0.0248246
0.0214558
0.0201162
0.0221773
0.0200039
0.0194691
0.0222487
0.0137714
0.0173358
0.0216055