# vtk DataFile Version 2.0
Gerris simulation version 1.3.2 (131206-155120)
ASCII
DATASET UNSTRUCTURED_GRID

POINTS 1089 float
-0.5 0.46875 0
-0.46875 0.46875 0
-0.5 0.5 0
-0.46875 0.5 0
-0.4375 0.46875 0
-0.4375 0.5 0
-0.5 0.4375 0
-0.46875 0.4375 0
-0.4375 0.4375 0
-0.40625 0.46875 0
-0.40625 0.5 0
-0.375 0.46875 0
-0.375 0.5 0
-0.40625 0.4375 0
-0.375 0.4375 0
-0.5 0.40625 0
-0.46875 0.40625 0
-0.4375 0.40625 0
-0.5 0.375 0
-0.46875 0.375 0
-0.4375 0.375 0
-0.40625 0.40625 0
-0.375 0.40625 0
-0.40625 0.375 0
-0.375 0.375 0
-0.34375 0.46875 0
-0.34375 0.5 0
-0.3125 0.46875 0
-0.3125 0.5 0
-0.34375 0.4375 0
-0.3125 0.4375 0
-0.28125 0.46875 0
-0.28125 0.5 0
-0.25 0.46875 0
-0.25 0.5 0
-0.28125 0.4375 0
-0.25 0.4375 0
-0.34375 0.40625 0
-0.3125 0.40625 0
-0.34375 0.375 0
-0.3125 0.375 0
-0.28125 0.40625 0
-0.25 0.40625 0
-0.28125 0.375 0
-0.25 0.375 0
-0.5 0.34375 0
-0.46875 0.34375 0
-0.4375 0.34375 0
-0.5 0.3125 0
-0.46875 0.3125 0
-0.4375 0.3125 0
-0.40625 0.34375 0
-0.375 0.34375 0
-0.40625 0.3125 0
-0.375 0.3125 0
-0.5 0.28125 0
-0.46875 0.28125 0
-0.4375 0.28125 0
-0.5 0.25 0
-0.46875 0.25 0
-0.4375 0.25 0
-0.40625 0.28125 0
-0.375 0.28125 0
-0.40625 0.25 0
-0.375 0.25 0
-0.34375 0.34375 0
-0.3125 0.34375 0
-0.34375 0.3125 0
-0.3125 0.3125 0
-0.28125 0.34375 0
-0.25 0.34375 0
-0.28125 0.3125 0
-0.25 0.3125 0
-0.34375 0.28125 0
-0.3125 0.28125 0
-0.34375 0.25 0
-0.3125 0.25 0
-0.28125 0.28125 0
-0.25 0.28125 0
-0.28125 0.25 0
-0.25 0.25 0
-0.21875 0.46875 0
-0.21875 0.5 0
-0.1875 0.46875 0
-0.1875 0.5 0
-0.21875 0.4375 0
-0.1875 0.4375 0
-0.15625 0.46875 0
-0.15625 0.5 0
-0.125 0.46875 0
-0.125 0.5 0
-0.15625 0.4375 0
-0.125 0.4375 0
-0.21875 0.40625 0
-0.1875 0.40625 0
-0.21875 0.375 0
-0.1875 0.375 0
-0.15625 0.40625 0
-0.125 0.40625 0
-0.15625 0.375 0
-0.125 0.375 0
-0.09375 0.46875 0
-0.09375 0.5 0
-0.0625 0.46875 0
-0.0625 0.5 0
-0.09375 0.4375 0
-0.0625 0.4375 0
-0.03125 0.46875 0
-0.03125 0.5 0
0 0.46875 0
0 0.5 0
-0.03125 0.4375 0
0 0.4375 0
-0.09375 0.40625 0
-0.0625 0.40625 0
-0.09375 0.375 0
-0.0625 0.375 0
-0.03125 0.40625 0
0 0.40625 0
-0.03125 0.375 0
0 0.375 0
-0.21875 0.34375 0
-0.1875 0.34375 0
-0.21875 0.3125 0
-0.1875 0.3125 0
-0.15625 0.34375 0
-0.125 0.34375 0
-0.15625 0.3125 0
-0.125 0.3125 0
-0.21875 0.28125 0
-0.1875 0.28125 0
-0.21875 0.25 0
-0.1875 0.25 0
-0.15625 0.28125 0
-0.125 0.28125 0
-0.15625 0.25 0
-0.125 0.25 0
-0.09375 0.34375 0
-0.0625 0.34375 0
-0.09375 0.3125 0
-0.0625 0.3125 0
-0.03125 0.34375 0
0 0.34375 0
-0.03125 0.3125 0
0 0.3125 0
-0.09375 0.28125 0
-0.0625 0.28125 0
-0.09375 0.25 0
-0.0625 0.25 0
-0.03125 0.28125 0
0 0.28125 0
-0.03125 0.25 0
0 0.25 0
-0.5 0.21875 0
-0.46875 0.21875 0
-0.4375 0.21875 0
-0.5 0.1875 0
-0.46875 0.1875 0
-0.4375 0.1875 0
-0.40625 0.21875 0
-0.375 0.21875 0
-0.40625 0.1875 0
-0.375 0.1875 0
-0.5 0.15625 0
-0.46875 0.15625 0
-0.4375 0.15625 0
-0.5 0.125 0
-0.46875 0.125 0
-0.4375 0.125 0
-0.40625 0.15625 0
-0.375 0.15625 0
-0.40625 0.125 0
-0.375 0.125 0
-0.34375 0.21875 0
-0.3125 0.21875 0
-0.34375 0.1875 0
-0.3125 0.1875 0
-0.28125 0.21875 0
-0.25 0.21875 0
-0.28125 0.1875 0
-0.25 0.1875 0
-0.34375 0.15625 0
-0.3125 0.15625 0
-0.34375 0.125 0
-0.3125 0.125 0
-0.28125 0.15625 0
-0.25 0.15625 0
-0.28125 0.125 0
-0.25 0.125 0
-0.5 0.09375 0
-0.46875 0.09375 0
-0.4375 0.09375 0
-0.5 0.0625 0
-0.46875 0.0625 0
-0.4375 0.0625 0
-0.40625 0.09375 0
-0.375 0.09375 0
-0.40625 0.0625 0
-0.375 0.0625 0
-0.5 0.03125 0
-0.46875 0.03125 0
-0.4375 0.03125 0
-0.5 0 0
-0.46875 0 0
-0.4375 0 0
-0.40625 0.03125 0
-0.375 0.03125 0
-0.40625 0 0
-0.375 0 0
-0.34375 0.09375 0
-0.3125 0.09375 0
-0.34375 0.0625 0
-0.3125 0.0625 0
-0.28125 0.09375 0
-0.25 0.09375 0
-0.28125 0.0625 0
-0.25 0.0625 0
-0.34375 0.03125 0
-0.3125 0.03125 0
-0.34375 0 0
-0.3125 0 0
-0.28125 0.03125 0
-0.25 0.03125 0
-0.28125 0 0
-0.25 0 0
-0.21875 0.21875 0
-0.1875 0.21875 0
-0.21875 0.1875 0
-0.1875 0.1875 0
-0.15625 0.21875 0
-0.125 0.21875 0
-0.15625 0.1875 0
-0.125 0.1875 0
-0.21875 0.15625 0
-0.1875 0.15625 0
-0.21875 0.125 0
-0.1875 0.125 0
-0.15625 0.15625 0
-0.125 0.15625 0
-0.15625 0.125 0
-0.125 0.125 0
-0.09375 0.21875 0
-0.0625 0.21875 0
-0.09375 0.1875 0
-0.0625 0.1875 0
-0.03125 0.21875 0
0 0.21875 0
-0.03125 0.1875 0
0 0.1875 0
-0.09375 0.15625 0
-0.0625 0.15625 0
-0.09375 0.125 0
-0.0625 0.125 0
-0.03125 0.15625 0
0 0.15625 0
-0.03125 0.125 0
0 0.125 0
-0.21875 0.09375 0
-0.1875 0.09375 0
-0.21875 0.0625 0
-0.1875 0.0625 0
-0.15625 0.09375 0
-0.125 0.09375 0
-0.15625 0.0625 0
-0.125 0.0625 0
-0.21875 0.03125 0
-0.1875 0.03125 0
-0.21875 0 0
-0.1875 0 0
-0.15625 0.03125 0
-0.125 0.03125 0
-0.15625 0 0
-0.125 0 0
-0.09375 0.09375 0
-0.0625 0.09375 0
-0.09375 0.0625 0
-0.0625 0.0625 0
-0.03125 0.09375 0
0 0.09375 0
-0.03125 0.0625 0
0 0.0625 0
-0.09375 0.03125 0
-0.0625 0.03125 0
-0.09375 0 0
-0.0625 0 0
-0.03125 0.03125 0
0 0.03125 0
-0.03125 0 0
0 0 0
0.03125 0.46875 0
0.03125 0.5 0
0.0625 0.46875 0
0.0625 0.5 0
0.03125 0.4375 0
0.0625 0.4375 0
0.09375 0.46875 0
0.09375 0.5 0
0.125 0.46875 0
0.125 0.5 0
0.09375 0.4375 0
0.125 0.4375 0
0.03125 0.40625 0
0.0625 0.40625 0
0.03125 0.375 0
0.0625 0.375 0
0.09375 0.40625 0
0.125 0.40625 0
0.09375 0.375 0
0.125 0.375 0
0.15625 0.46875 0
0.15625 0.5 0
0.1875 0.46875 0
0.1875 0.5 0
0.15625 0.4375 0
0.1875 0.4375 0
0.21875 0.46875 0
0.21875 0.5 0
0.25 0.46875 0
0.25 0.5 0
0.21875 0.4375 0
0.25 0.4375 0
0.15625 0.40625 0
0.1875 0.40625 0
0.15625 0.375 0
0.1875 0.375 0
0.21875 0.40625 0
0.25 0.40625 0
0.21875 0.375 0
0.25 0.375 0
0.03125 0.34375 0
0.0625 0.34375 0
0.03125 0.3125 0
0.0625 0.3125 0
0.09375 0.34375 0
0.125 0.34375 0
0.09375 0.3125 0
0.125 0.3125 0
0.03125 0.28125 0
0.0625 0.28125 0
0.03125 0.25 0
0.0625 0.25 0
0.09375 0.28125 0
0.125 0.28125 0
0.09375 0.25 0
0.125 0.25 0
0.15625 0.34375 0
0.1875 0.34375 0
0.15625 0.3125 0
0.1875 0.3125 0
0.21875 0.34375 0
0.25 0.34375 0
0.21875 0.3125 0
0.25 0.3125 0
0.15625 0.28125 0
0.1875 0.28125 0
0.15625 0.25 0
0.1875 0.25 0
0.21875 0.28125 0
0.25 0.28125 0
0.21875 0.25 0
0.25 0.25 0
0.28125 0.46875 0
0.28125 0.5 0
0.3125 0.46875 0
0.3125 0.5 0
0.28125 0.4375 0
0.3125 0.4375 0
0.34375 0.46875 0
0.34375 0.5 0
0.375 0.46875 0
0.375 0.5 0
0.34375 0.4375 0
0.375 0.4375 0
0.28125 0.40625 0
0.3125 0.40625 0
0.28125 0.375 0
0.3125 0.375 0
0.34375 0.40625 0
0.375 0.40625 0
0.34375 0.375 0
0.375 0.375 0
0.40625 0.46875 0
0.40625 0.5 0
0.4375 0.46875 0
0.4375 0.5 0
0.40625 0.4375 0
0.4375 0.4375 0
0.46875 0.46875 0
0.46875 0.5 0
0.5 0.46875 0
0.5 0.5 0
0.46875 0.4375 0
0.5 0.4375 0
0.40625 0.40625 0
0.4375 0.40625 0
0.40625 0.375 0
0.4375 0.375 0
0.46875 0.40625 0
0.5 0.40625 0
0.46875 0.375 0
0.5 0.375 0
0.28125 0.34375 0
0.3125 0.34375 0
0.28125 0.3125 0
0.3125 0.3125 0
0.34375 0.34375 0
0.375 0.34375 0
0.34375 0.3125 0
0.375 0.3125 0
0.28125 0.28125 0
0.3125 0.28125 0
0.28125 0.25 0
0.3125 0.25 0
0.34375 0.28125 0
0.375 0.28125 0
0.34375 0.25 0
0.375 0.25 0
0.40625 0.34375 0
0.4375 0.34375 0
0.40625 0.3125 0
0.4375 0.3125 0
0.46875 0.34375 0
0.5 0.34375 0
0.46875 0.3125 0
0.5 0.3125 0
0.40625 0.28125 0
0.4375 0.28125 0
0.40625 0.25 0
0.4375 0.25 0
0.46875 0.28125 0
0.5 0.28125 0
0.46875 0.25 0
0.5 0.25 0
0.03125 0.21875 0
0.0625 0.21875 0
0.03125 0.1875 0
0.0625 0.1875 0
0.09375 0.21875 0
0.125 0.21875 0
0.09375 0.1875 0
0.125 0.1875 0
0.03125 0.15625 0
0.0625 0.15625 0
0.03125 0.125 0
0.0625 0.125 0
0.09375 0.15625 0
0.125 0.15625 0
0.09375 0.125 0
0.125 0.125 0
0.15625 0.21875 0
0.1875 0.21875 0
0.15625 0.1875 0
0.1875 0.1875 0
0.21875 0.21875 0
0.25 0.21875 0
0.21875 0.1875 0
0.25 0.1875 0
0.15625 0.15625 0
0.1875 0.15625 0
0.15625 0.125 0
0.1875 0.125 0
0.21875 0.15625 0
0.25 0.15625 0
0.21875 0.125 0
0.25 0.125 0
0.03125 0.09375 0
0.0625 0.09375 0
0.03125 0.0625 0
0.0625 0.0625 0
0.09375 0.09375 0
0.125 0.09375 0
0.09375 0.0625 0
0.125 0.0625 0
0.03125 0.03125 0
0.0625 0.03125 0
0.03125 0 0
0.0625 0 0
0.09375 0.03125 0
0.125 0.03125 0
0.09375 0 0
0.125 0 0
0.15625 0.09375 0
0.1875 0.09375 0
0.15625 0.0625 0
0.1875 0.0625 0
0.21875 0.09375 0
0.25 0.09375 0
0.21875 0.0625 0
0.25 0.0625 0
0.15625 0.03125 0
0.1875 0.03125 0
0.15625 0 0
0.1875 0 0
0.21875 0.03125 0
0.25 0.03125 0
0.21875 0 0
0.25 0 0
0.28125 0.21875 0
0.3125 0.21875 0
0.28125 0.1875 0
0.3125 0.1875 0
0.34375 0.21875 0
0.375 0.21875 0
0.34375 0.1875 0
0.375 0.1875 0
0.28125 0.15625 0
0.3125 0.15625 0
0.28125 0.125 0
0.3125 0.125 0
0.34375 0.15625 0
0.375 0.15625 0
0.34375 0.125 0
0.375 0.125 0
0.40625 0.21875 0
0.4375 0.21875 0
0.40625 0.1875 0
0.4375 0.1875 0
0.46875 0.21875 0
0.5 0.21875 0
0.46875 0.1875 0
0.5 0.1875 0
0.40625 0.15625 0
0.4375 0.15625 0
0.40625 0.125 0
0.4375 0.125 0
0.46875 0.15625 0
0.5 0.15625 0
0.46875 0.125 0
0.5 0.125 0
0.28125 0.09375 0
0.3125 0.09375 0
0.28125 0.0625 0
0.3125 0.0625 0
0.34375 0.09375 0
0.375 0.09375 0
0.34375 0.0625 0
0.375 0.0625 0
0.28125 0.03125 0
0.3125 0.03125 0
0.28125 0 0
0.3125 0 0
0.34375 0.03125 0
0.375 0.03125 0
0.34375 0 0
0.375 0 0
0.40625 0.09375 0
0.4375 0.09375 0
0.40625 0.0625 0
0.4375 0.0625 0
0.46875 0.09375 0
0.5 0.09375 0
0.46875 0.0625 0
0.5 0.0625 0
0.40625 0.03125 0
0.4375 0.03125 0
0.40625 0 0
0.4375 0 0
0.46875 0.03125 0
0.5 0.03125 0
0.46875 0 0
0.5 0 0
-0.5 -0.03125 0
-0.46875 -0.03125 0
-0.4375 -0.03125 0
-0.5 -0.0625 0
-0.46875 -0.0625 0
-0.4375 -0.0625 0
-0.40625 -0.03125 0
-0.375 -0.03125 0
-0.40625 -0.0625 0
-0.375 -0.0625 0
-0.5 -0.09375 0
-0.46875 -0.09375 0
-0.4375 -0.09375 0
-0.5 -0.125 0
-0.46875 -0.125 0
-0.4375 -0.125 0
-0.40625 -0.09375 0
-0.375 -0.09375 0
-0.40625 -0.125 0
-0.375 -0.125 0
-0.34375 -0.03125 0
-0.3125 -0.03125 0
-0.34375 -0.0625 0
-0.3125 -0.0625 0
-0.28125 -0.03125 0
-0.25 -0.03125 0
-0.28125 -0.0625 0
-0.25 -0.0625 0
-0.34375 -0.09375 0
-0.3125 -0.09375 0
-0.34375 -0.125 0
-0.3125 -0.125 0
-0.28125 -0.09375 0
-0.25 -0.09375 0
-0.28125 -0.125 0
-0.25 -0.125 0
-0.5 -0.15625 0
-0.46875 -0.15625 0
-0.4375 -0.15625 0
-0.5 -0.1875 0
-0.46875 -0.1875 0
-0.4375 -0.1875 0
-0.40625 -0.15625 0
-0.375 -0.15625 0
[...]
POINT_DATA 1089
SCALARS T float
LOOKUP_TABLE default
0
0
0
0
0
0
0
0
0
0
0
0
0
0
0
0
0
0
0
0
0
0
0
0
0
0
0
0
0
0
0
0
0
0
0
0
0
0
0
0
0
0
0
0
0
0
0
0
0
0
0
0
0
0
0
0
0
0
0
0
0
0
0
0
0
0
0
0
0
0
0
0
0
0
0
0
0
0
0
0
0
0
0
0
0
0
0
0
0
0
0
0
0
0
0
0
0
0
0
0
0
0
0
0
0
0
0
0
0
0
0
0
0
0
0
0
0
0
0
0
0
0
0
0
0
0
0
0
0
0
0
0
0
0
0
0
0
0
0
0
0
0
0
0
0
0
0
0
0
0
0
0
0
0
0
0
0
0
0
0
0
0
0
0
0
0
0
0
0
0
0
0
0
0
0
0
0
0
0
0
0
0
0
0
0
0
0
0
0
0
0
0
0
0
0
0
0
0
0
0
0
0
0
0
0
0
0
0
0
0
0
0
0
0
0
0
0.00113419
0
0
0
0
0
0.136567
0.0440013
0.428081
0
0
0
0
0
0
0
0
0
0
0
0
0
0
0
0
0
0
0
0
0
0
0
0
0
0
0
0
0
0
0
0
0
0.0181849
0.118978
0.377723
0.113411
0.233166
0.605106
0.733166
0.504411
0.859538
0.88408
1
0.991694
1
1
1
0.280122
0.249982
0.780122
0.749982
0.141674
0.0338749
0.638644
0.430621
1
1
1
1
0.99697
0.896746
1
1
0
0
0
0
0
0
0
0
0
0
0
0
0
0
0
0
0
0
0
0
0
0
0
0
0
0
0
0
0
0
0
0
0
0
0
0
0
0
0
0
0
0
0
0
0
0
0
0
0
0
0
0
0
0
0
0
0
0.0443331
0.0247613
0.301437
0.211685
0.365978
0.694028
0.865978
0.13182
0.614163
0.2143
0.7143
0.982343
1
1
1
0
0
0
0
0
0
0
0
0
0
0
0
0
0
0
0
0
0
0
0
0
0
0
0
0
0
0
0
0
0
0
0
0
0
0
0
0
0
0
0
0.335515
0.150579
0.835514
0.578155
0.0136907
0
0.192281
0.0010144
1
0.927569
1
0.999993
0.455315
0.0277455
0.553548
0.0535546
0
0
0
0
0
0
0
0
0
0
0
0
0
0
0
0
0
0
0
0
0
0
0
0
0
0
0
0
0
0
0
0
0.131482
0.615197
0.0242405
0.302204
0.983715
1
0.697556
0.870719
0
0.0442482
0
0
0.213841
0.370719
0
0
0
0
0.159951
0.0101751
0
0
0
0
0.591159
0.195805
0.931208
0.534019
0.00442265
0
0.102811
0
0
0
0
0
0
0
0
0
0
0
0
0
0
0
0
0.00792264
1
0.927522
0.839737
0.580026
0.455413
0.0278908
0.192482
0.00106723
0.339737
0.152504
0
0
0.0138926
0
0
0
0
0
0
0
0
0
0
0
0
0
0
0
0
0
0
0
0
0
0
0
0
0
0
0
0
0
0.122784
0.252687
0
0
0.181503
0.0436776
0
0
0
0
0
0
0
0
0
0
0
0
0
0
0
0
0
0
0
0
0
0
0
0
0
0
0
0
0
0
0
0
0
0
0
0
0
0
0
0
0.171942
0.670589
0.284351
0.784351
0
0
0
0
0.289219
0.789219
0.187545
0.687545
0
0
0
0
0
0
0
0
0
0
0
0
0
0
0
0
0
0
0
0
0
0
0
0
0.0547367
0.465964
0
0.169904
0
0
0
0
0
0.00867712
0
0
0.998647
1
1
1
1
1
1
1
1
1
1
1
1
1
1
1
1
1
1
1
1
1
1
1
1
1
1
1
1
1
1
1
0.911227
1
0.579983
0.910076
1
1
0.999997
1
0.168756
0.468876
0
0.0587999
0.70975
0.849306
0.209753
0.349306
1
1
1
1
1
1
1
0.957645
0.903943
0.878285
0.403943
0.378285
0.7685
0.561096
0.2685
0.103451
0
0
0
0
0
0
0
0
0
0
0
0
0
0
0
0
0
0
0
0
0
0
0
0
0
0
0
0
0
0
0
0
0
0
0
0
0
0
0
0
0
0
0
0
0
0
0
0
0
0
0
0
0
0
0
0
0
0
0
0
0
0
0
0
0
0
0
0
0
0
0
0
0
0
0
0
0
0
0
0
0
0
0
0
0
0
0
0
0
0
0
0
0
0
0
0
0
0
0
0
0
0
0
0
0
0
0
0
0
0
0
0
0
0
0
0
0
0
0
0
0
0
0
0
0
0
0
0
0
0
0
0
0
0
0
0
1
0.786611
1
0.908931
0.286611
0
0.408931
0
1
0.920939
1
0.824737
0.420939
0
0.324737
0
0
0
0
0
0
0.151585
0
0.335617
0
0
0
0
0
0.288622
0
0.0966673
0.968332
0.607428
0.71388
0.270824
0.139095
0
0.0145877
0
0.253194
0.0379034
0.00764574
0
0
0
0
0
0
0
0
0
0
0
0
0
0
0
0
0
0
0
0
0
0.516446
0.752687
0.835617
1
0.650586
0.273461
0.969083
0.509379
0.787963
0.999341
0.384358
0.597445
0.929709
0.463491
0.493384
0.187817
0.0107008
0
0.0402958
0
0
0
0
0
0.0337826
0
0.00418764
0
0
0
0
0
0.0383498
0.0981049
0
0
0.0636758
0.00392067
0
0
0
0
0
0
0
0
0
0
0
0
0
0
0
0
0
0
0
0
0
0
0
0
0
0
0
0
0
0
0
0
0
0
0
0
0
0
0
0
0
0
0
0
0
0
0
0
0
0
0
0
0
0
0
0
0
0
0
0
0
0
0
0
0
0
0
0
0
0
0
0
0
0
0
0
0
0
0
0
0
0
0
0
0
0
0
0
0
0
0
0
0
0
0
0
0
0
0
0
0
0
0
0
0
0
0
0
0
0
0
0
0
0
0
0
0
0
0
0
0
0
0
0
0
0
0
0
0
0
0
0
0
0
0
0
0
0
0
0
0
0
0
0
0
0
0
0
0
0
0
0
0
0

SCALARS P float
LOOKUP_TABLE default
-0.0111737
-0.0111333
-0.0112137
-0.0111716
-0.0110844
-0.0111197
-0.0111435
-0.0111055
-0.0110594
-0.0110268
-0.0110585
-0.010961
-0.0109879
-0.011005
-0.0109427
-0.0111231
-0.0110876
-0.0110442
-0.0111131
-0.0110805
-0.0110396
-0.0109924
-0.0109324
-0.0109898
-0.010931
-0.0108879
-0.0109089
-0.0108091
-0.0108227
-0.0108735
-0.0107992
-0.0107274
-0.0107321
-0.0106462
-0.0106406
-0.0107222
-0.010646
-0.0108652
-0.0107923
-0.0108637
-0.0107894
-0.0107162
-0.0106404
-0.0107103
-0.01063
-0.0111123
-0.0110839
-0.011046
-0.0111227
-0.0110999
-0.0110655
-0.010998
-0.0109394
-0.0110194
-0.0109605
-0.0111467
-0.0111297
-0.0110997
-0.0111876
-0.0111766
-0.0111523
-0.0110563
-0.0109974
-0.0111129
-0.0110549
-0.0108704
-0.0107921
-0.0108883
-0.0108033
-0.010706
-0.0106162
-0.0107063
-0.0106013
-0.0109212
-0.0108275
-0.010975
-0.0108712
-0.0107152
-0.0105886
-0.0107397
-0.0105839
-0.0105705
-0.010554
-0.0105057
-0.0104788
-0.0105752
-0.0105149
-0.0104578
-0.0104223
-0.010432
-0.0103916
-0.0104703
-0.010446
-0.0105691
-0.0105078
-0.0105529
-0.0104851
-0.0104619
-0.0104361
-0.010433
-0.0104024
-0.0104312
-0.0103901
-0.0104563
-0.0104191
-0.0104449
-0.0104676
-0.0105047
-0.0104755
-0.0105723
-0.0105538
-0.0105122
-0.0105746
-0.0104336
-0.0104553
-0.0103977
-0.01042
-0.0104992
-0.0105612
-0.0104673
-0.0105351
-0.0105272
-0.0104466
-0.010493
-0.0103915
-0.0103826
-0.0103432
-0.010308
-0.0102541
-0.0104519
-0.0103184
-0.0104062
-0.010225
-0.0102044
-0.0101279
-0.0100638
-0.00995172
-0.0103349
-0.0103592
-0.0102402
-0.0102686
-0.0104143
-0.0104939
-0.0103372
-0.010437
-0.0101056
-0.0101407
-0.00991631
-0.00996209
-0.0102308
-0.0103614
-0.0100844
-0.010258
-0.0112393
-0.0112396
-0.0112248
-0.0113118
-0.0113243
-0.0113216
-0.0111923
-0.0111381
-0.0113
-0.0112543
-0.0114097
-0.0114332
-0.011445
-0.0115215
-0.0115617
-0.011594
-0.0114392
-0.0114089
-0.0116122
-0.0116085
-0.0110565
-0.0109429
-0.0111756
-0.0110557
-0.0107891
-0.0105963
-0.0108794
-0.0106427
-0.0113418
-0.0112243
-0.011568
-0.011473
-0.0110318
-0.0107483
-0.0112872
-0.0109719
-0.0116446
-0.0117055
-0.0117641
-0.0117717
-0.0118584
-0.0119487
-0.0118155
-0.0118523
-0.0120425
-0.0121377
-0.0119147
-0.0120178
-0.0121364
-0.012032
-0.0121566
-0.0123023
-0.0122768
-0.0124472
-0.0124867
-0.0127291
-0.0118631
-0.0118253
-0.012233
-0.0123038
-0.0116939
-0.0113845
-0.0123356
-0.012116
-0.0126617
-0.0129182
-0.0130608
-0.0135193
-0.0132852
-0.00447797
-0.0109735
0.0139398
-0.0103617
-0.0101101
-0.0103291
-0.00997181
-0.00987642
-0.00970836
-0.00962319
-0.00936524
-0.0103297
-0.00981925
-0.010422
-0.00967279
-0.00928901
-0.00888315
-0.00883545
-0.0081806
-0.00965351
-0.00971625
-0.00928152
-0.0093755
-0.00988711
-0.0101193
-0.0096264
-0.00994693
-0.00875996
-0.00891692
-0.0079977
-0.00827102
-0.0093078
-0.0097637
-0.00890345
-0.00957927
-0.0106798
-0.00870639
-0.00450955
0.0110569
-0.00283502
0.00384842
0.023629
0.0300836
0.0184308
0.0389272
0.0424573
0.0482554
0.0455771
0.0453786
0.0471859
0.0465009
0.00632061
0.00455171
0.0323649
0.0308801
-0.00159886
-0.00781755
0.0251507
0.0137081
0.0451576
0.0453551
0.0462419
0.0463859
0.0456616
0.0403836
0.0468837
0.0475952
-0.0106526
-0.0106464
-0.0107389
-0.0107453
-0.010649
-0.0107289
-0.0108254
-0.0108439
-0.0109048
-0.0109351
-0.0108085
-0.0108796
-0.0106349
-0.0107134
-0.0106155
-0.0107012
-0.0107894
-0.0108538
-0.010782
-0.0108474
-0.0109789
-0.0110183
-0.0110376
-0.0110869
-0.0109465
-0.0109921
-0.0111009
-0.0111502
-0.0111595
-0.011205
-0.0110544
-0.0111175
-0.0109116
-0.0109367
-0.0108958
-0.0108867
-0.0110152
-0.0110938
-0.0109649
-0.0110489
-0.0105884
-0.0106898
-0.0105563
-0.010686
-0.0107805
-0.0108501
-0.0108034
-0.0109075
-0.0105198
-0.0106938
-0.0104664
-0.0106906
-0.0108789
-0.011071
-0.010944
-0.0112073
-0.0108521
-0.00559849
-0.00788901
0.0250571
0.014004
0.0319936
0.0713993
0.0914058
0.00496182
0.0625444
0.0150136
0.0747765
0.105978
0.107844
0.108089
0.107877
-0.0112054
-0.0112471
-0.0112399
-0.0112779
-0.0111758
-0.01122
-0.0112488
-0.011291
-0.0112498
-0.0112937
-0.0112191
-0.0112167
-0.0111748
-0.011231
-0.0111874
-0.0112668
-0.0111994
-0.0111921
-0.0111832
-0.0111759
-0.0112429
-0.0112871
-0.0112285
-0.0112721
-0.011209
-0.0111951
-0.0112051
-0.0112475
-0.0111737
-0.0112147
-0.0111729
-0.0111435
-0.0111834
-0.0111704
-0.0111666
-0.011155
-0.01115
-0.0111231
-0.0111371
-0.0111131
0.0280655
0.00610836
0.0875361
0.0564398
-0.00974109
-0.0111624
0.0109262
-0.0109975
0.107759
0.0984661
0.107758
0.107532
0.041905
-0.00822214
0.0537069
-0.0055466
-0.0111499
-0.0111431
-0.0111109
-0.0111312
-0.0111311
-0.0111123
-0.0111337
-0.0111227
-0.0111207
-0.0111422
-0.011179
-0.0111794
-0.011152
-0.0111467
-0.011189
-0.0111876
-0.0103819
-0.0106497
-0.0102834
-0.0106027
-0.0109111
-0.0111622
-0.0108547
-0.0110442
-0.0102078
-0.0106162
-0.0101885
-0.0107298
-0.0109115
-0.0110993
-0.0110886
-0.0113061
0.0051243
0.0630246
-0.00792277
0.0256658
0.106209
0.107805
0.0726153
0.0927868
-0.0111346
-0.00554107
-0.0114111
-0.0113934
0.0147656
0.0331395
-0.0114819
-0.0116365
-0.010273
-0.0109834
-0.00193184
-0.0109976
-0.0113927
-0.0116023
-0.0119283
-0.0120565
0.0229193
-0.000727747
0.0442178
0.0198159
-0.0125151
-0.0126692
-0.00722361
-0.0134141
-0.0116878
-0.0116792
-0.0120724
-0.0120183
-0.0117061
-0.0117482
-0.01195
-0.0118861
-0.0125321
-0.0123794
-0.0130511
-0.012775
-0.0122128
-0.0120433
-0.0125302
-0.0108402
0.10766
0.0985685
0.0887735
0.0573336
0.04221
-0.00811464
0.0113467
-0.0109756
0.0291653
0.00676004
-0.0116573
-0.0115383
-0.00964006
-0.0112593
-0.0113557
-0.011337
-0.0111448
-0.0111925
-0.0111716
-0.0112391
-0.0112254
-0.0112393
-0.0112846
-0.0113118
-0.0112989
-0.0113357
-0.0113891
-0.0114223
-0.0113768
-0.0114097
-0.011476
-0.0115215
-0.0116725
-0.011565
-0.0117217
-0.0115994
-0.0113935
-0.011373
-0.0113527
-0.0113246
-0.0117244
-0.0115065
0.0101279
0.0331692
-0.0111741
-0.0112649
0.0201275
-0.00406505
-0.011473
-0.0115074
-0.0115237
-0.0115715
-0.0115833
-0.0116446
-0.0116884
-0.0117717
-0.0116513
-0.0116902
-0.0115898
-0.0117306
-0.0118263
-0.0119147
-0.011915
-0.012032
-0.0121876
-0.0122912
-0.0124369
-0.0123201
-0.012385
-0.012513
-0.0126421
-0.0129264
-0.0127143
-0.0130016
-0.0123267
-0.0123915
-0.0125108
-0.0122944
-0.0123487
-0.0124457
-0.0126964
-0.0129599
-0.0125922
-0.0128008
-0.0133322
-0.0139145
-0.0134215
-0.0140231
-0.002483
0.0299711
0.00508517
0.0375606
-0.013338
-0.0138863
-0.0130783
-0.0134921
0.00549178
0.0377286
-0.000919042
0.0308386
-0.0122258
-0.0122657
-0.0123363
-0.0121297
-0.0121527
-0.0121942
-0.0124386
-0.0125841
-0.0122526
-0.0123318
-0.0120207
-0.0120246
-0.0120356
-0.0119046
-0.0118917
-0.0118778
-0.0120496
-0.0120607
-0.0118574
-0.0118207
-0.0127602
-0.0130216
-0.0124198
-0.0125343
-0.00944901
0.0165991
-0.0126748
-0.0017051
-0.0120555
-0.0120145
-0.011755
-0.0116289
-0.0119215
-0.0110826
-0.0114179
-0.0110389
0.0499712
0.0487376
0.0499817
0.0488893
0.0477987
0.0472082
0.0480552
0.0475286
0.0497429
0.0487585
0.049248
0.0483047
0.0479929
0.0475214
0.0476093
0.0471927
0.0469759
0.0470883
0.0473188
0.0474308
0.0475223
0.0482393
0.047846
0.0485533
0.04734
0.0474549
0.0470459
0.0471691
0.0478511
0.0485296
0.0475477
0.0481729
0.0435015
0.0476585
0.0232381
0.0416753
0.0469596
0.0465715
0.0459833
0.0456598
-0.00099654
0.0165237
-0.0103347
-0.00620232
0.0295039
0.0366611
0.00250471
0.0100377
0.0464588
0.0465964
0.0456069
0.0457801
0.0469731
0.047555
0.0461364
0.0441771
0.0394667
0.0382424
0.0128788
0.0113884
0.0325329
0.0211659
0.00521332
-0.00428968
-0.0117895
-0.0117626
-0.0117288
-0.0116783
-0.0116419
-0.0115953
-0.0116828
-0.0116143
-0.011534
-0.011449
-0.0115754
-0.0115327
-0.0114782
-0.0114817
-0.0114359
-0.0113781
-0.0114083
-0.0113163
-0.0113056
-0.0112139
-0.0115141
-0.0113551
-0.0113337
-0.0111678
-0.0111256
-0.010774
-0.0109465
-0.0106392
-0.0111982
-0.0110411
-0.0111008
-0.0109588
-0.010845
-0.0105951
-0.0107898
-0.0105882
-0.0113988
-0.011352
-0.0112936
-0.0113265
-0.0112803
-0.0112233
-0.0112217
-0.0111338
-0.0111543
-0.0110721
-0.0112651
-0.0112204
-0.0111658
-0.0112147
-0.0111716
-0.0111197
-0.0111005
-0.0110243
-0.0110585
-0.0109879
-0.0110288
-0.0109033
-0.0109765
-0.0108666
-0.0107602
-0.0105988
-0.0107453
-0.0106147
-0.0109377
-0.010841
-0.0109089
-0.0108227
-0.0107373
-0.0106296
-0.0107321
-0.0106406
-0.0102494
-0.00955325
-0.0102455
-0.00978016
-0.00889112
-0.00847894
-0.00935676
-0.00909106
-0.0103032
-0.00998298
-0.0103675
-0.0101418
-0.00970193
-0.00953049
-0.00995123
-0.00983708
-0.00841394
-0.00869319
-0.00903836
-0.00921953
-0.00920597
-0.00985079
-0.00956437
-0.0100058
-0.00949501
-0.00961064
-0.00981468
-0.00989553
-0.00984068
-0.0101472
-0.010058
-0.0102772
-0.010431
-0.0102683
-0.0104841
-0.010363
-0.0101354
-0.0100575
-0.0102672
-0.0102125
-0.0105253
-0.0104322
-0.010554
-0.0104788
-0.0103606
-0.0103207
-0.0104223
-0.0103916
-0.0100441
-0.0101021
-0.0102052
-0.0102493
-0.0102192
-0.0103797
-0.0103376
-0.0104593
-0.0103171
-0.010352
-0.0103901
-0.0104191
-0.0104209
-0.0105163
-0.0104755
-0.0105538
0.0492825
0.0363087
0.0495304
0.044609
0.00415465
-0.014074
0.0121596
-0.0144375
0.0494535
0.0453472
0.0490411
0.0386953
0.0129441
-0.0144682
0.0067122
-0.0141238
-0.0135174
-0.013144
-0.0137906
-0.013345
-0.0128684
0.0152774
-0.0130473
0.0489134
-0.0138549
-0.01346
-0.0136528
-0.0133757
-0.0132741
0.0403014
-0.0132656
0.00500459
0.0463917
0.0244619
0.0303751
0.00384258
-0.00484334
-0.0135231
-0.0120013
-0.0128744
0.00339066
-0.00956323
-0.010213
-0.0112457
-0.0121568
-0.0123176
-0.0116611
-0.0119012
-0.0132419
-0.013059
-0.0127959
-0.0127283
-0.0129317
-0.0128088
-0.0126596
-0.0125992
-0.012384
-0.0124016
-0.0120393
-0.0121118
-0.0123854
-0.0123636
-0.0121389
-0.0121485
0.0816734
0.123787
0.140417
0.170106
0.104335
0.0363797
0.163736
0.0791551
0.132597
0.170952
0.0586421
0.0975564
0.157204
0.0713881
0.077662
0.0216286
-0.0102284
-0.0120668
-0.00583152
-0.0124726
-0.0121037
-0.0121876
-0.0123053
-0.0123201
-0.00680418
-0.0124209
-0.0116547
-0.0123134
-0.0123097
-0.0123267
-0.0122801
-0.0122944
-0.0056398
0.00551654
-0.0126302
-0.0124317
-0.000560022
-0.0114985
-0.0121278
-0.0121332
-0.0123503
-0.0122422
-0.0121383
-0.0120823
-0.0120927
-0.0120649
-0.012005
-0.0119734
-0.0122578
-0.0122211
-0.0121524
-0.0121265
-0.0122162
-0.0122258
-0.0121261
-0.0121297
-0.0120582
-0.0120334
-0.0119586
-0.0119344
-0.0120266
-0.0120207
-0.0119201
-0.0119046
-0.01047
-0.0109779
-0.0104499
-0.0108421
-0.0113514
-0.0116033
-0.0111564
-0.0113902
-0.0104728
-0.0107771
-0.0105176
-0.0107518
-0.0110356
-0.0112412
-0.0109612
-0.0111369
-0.0117676
-0.0118691
-0.0115568
-0.0116703
-0.0119246
-0.0119548
-0.0117424
-0.011787
-0.0113975
-0.0115114
-0.0112776
-0.0113857
-0.0115902
-0.0116428
-0.0114652
-0.0115214
-0.0105612
-0.0107443
-0.0105996
-0.0107448
-0.0109143
-0.0110628
-0.010884
-0.0110092
-0.0106281
-0.0107461
-0.0106464
-0.0107453
-0.0108618
-0.0109681
-0.0108439
-0.0109351
-0.0111869
-0.0112859
-0.0111175
-0.0112064
-0.0113625
-0.0114194
-0.0112786
-0.0113344
-0.0110627
-0.0111415
-0.0110183
-0.0110869
-0.011209
-0.0112639
-0.0111502
-0.011205
-0.011958
-0.0119343
-0.0118048
-0.0118018
-0.0118964
-0.0118723
-0.0117857
-0.0117694
-0.0116711
-0.0116815
-0.0115562
-0.0115747
-0.0116788
-0.0116697
-0.0115799
-0.0115759
-0.0118563
-0.0118334
-0.011754
-0.0117321
-0.0118133
-0.0117895
-0.0117082
-0.0116783
-0.0116564
-0.0116356
-0.0115646
-0.0115449
-0.0116094
-0.0115754
-0.0115177
-0.0114817
-0.0114577
-0.011481
-0.0113741
-0.0114003
-0.0114911
-0.0114907
-0.011413
-0.0114148
-0.0113043
-0.0113326
-0.0112471
-0.0112779
-0.0113462
-0.011349
-0.011291
-0.0112937
-0.0114812
-0.0114627
-0.0114067
-0.0113894
-0.0114354
-0.0113988
-0.0113626
-0.0113265
-0.0113419
-0.0113257
-0.0112871
-0.0112721
-0.0113
-0.0112651
-0.0112475
-0.0112137

SCALARS U float
LOOKUP_TABLE default
0.0200632
0.0200649
0.0197543
0.019776
0.0200726
0.0198049
0.0203736
0.0203416
0.0203186
0.020086
0.0198344
0.0201052
0.019865
0.020305
0.0203007
0.0206506
0.0205846
0.0205285
0.0208566
0.0207675
0.0206835
0.0204832
0.020449
0.0206072
0.02054
0.0201302
0.0198977
0.0201607
0.0199352
0.0203054
0.0203171
0.0201952
0.019979
0.0202318
0.0200317
0.0203326
0.0203475
0.020426
0.0204119
0.0204844
0.0204393
0.0204031
0.0203947
0.0204026
0.0203705
0.0209734
0.0208763
0.0207714
0.0209993
0.0209087
0.0207866
0.0206646
0.0205604
0.0206456
0.0204951
0.0209868
0.0208959
0.0207438
0.0209922
0.0208691
0.0206596
0.0205521
0.0203353
0.0203907
0.0200799
0.0204654
0.0203816
0.020348
0.020212
0.0203112
0.0202538
0.0200965
0.0200081
0.0201141
0.0199032
0.0197555
0.0194397
0.0197234
0.0195918
0.0191684
0.0189703
0.0202682
0.0200954
0.0203014
0.0201697
0.0203574
0.0203576
0.0203299
0.0202561
0.0203503
0.0203491
0.0203449
0.0203169
0.0203812
0.0203578
0.0203386
0.0203033
0.0203201
0.0202657
0.0202594
0.0202041
0.0203591
0.0204403
0.0203534
0.0205195
0.0202726
0.0202126
0.0203308
0.0205743
0.0202911
0.0205963
0.0201397
0.0200582
0.020194
0.0201071
0.0201355
0.0200547
0.0200098
0.0199064
0.0199663
0.0198716
0.0202088
0.0201764
0.0199543
0.0199431
0.0201505
0.0201269
0.0199671
0.0200194
0.0195298
0.0195604
0.0188891
0.0189766
0.0196737
0.0198581
0.0192218
0.0196092
0.0200998
0.020066
0.0200853
0.0201515
0.0200261
0.0199775
0.0202114
0.0202613
0.0200809
0.020308
0.0200744
0.0205378
0.0205156
0.0206977
0.0209355
0.0212456
0.0210732
0.0208596
0.0205548
0.0211532
0.0208393
0.0204315
0.0201789
0.0197458
0.0199407
0.0193741
0.0211325
0.0207694
0.0202938
0.0210177
0.0206677
0.0201849
0.0197152
0.0190331
0.0195768
0.0188246
0.019289
0.0188362
0.018768
0.0181442
0.0184367
0.0181215
0.0175467
0.0169783
0.018276
0.0174288
0.0179222
0.016751
0.016476
0.015333
0.0151359
0.0128532
0.0208164
0.0205556
0.0201495
0.0206067
0.0204965
0.0202583
0.0195991
0.0188556
0.019884
0.0192828
0.0204189
0.0205108
0.0205343
0.0202849
0.0206023
0.0209596
0.0204829
0.0202495
0.0213709
0.0217929
0.0178286
0.0162117
0.018244
0.0162926
0.0135889
0.00980246
0.0129522
0.00928311
0.0195998
0.0181292
0.0221581
0.0224498
0.0158068
0.0154963
0.0232632
0.0266215
0.0179719
0.0181026
0.0165975
0.0166766
0.0185165
0.0192082
0.0172864
0.0184711
0.0143463
0.0141652
0.0106957
0.0101239
0.0150265
0.0170705
0.0115575
0.0149687
0.0200582
0.0208902
0.0200108
0.0215151
0.0215473
0.0219518
0.022612
0.0230906
0.0198835
0.0226627
0.0195961
0.0241937
0.0246126
0.0252566
0.0275414
0.0287549
0.00669919
0.00690893
0.00844571
0.0117912
0.0100131
0.0143644
0.016167
0.0184136
0.0192711
0.0237384
0.0310738
0.0318604
0.0252356
0.0232147
0.0288188
0.0243921
0.0191164
0.02374
0.0188286
0.0190008
0.0277875
0.0304966
0.020556
0.0241155
0.0191275
0.0149173
0.0196229
0.0149593
0.0124923
0.013367
0.0108205
0.00798901
0.0202375
0.0205819
0.0201786
0.0205358
0.0199745
0.0198974
0.0201244
0.0204663
0.0201039
0.0203943
0.0198388
0.0198412
0.0198032
0.0197043
0.019776
0.0196729
0.0196219
0.0196053
0.0195659
0.0194755
0.0201248
0.0203252
0.0202455
0.0202847
0.0199263
0.0202411
0.0203629
0.020234
0.0202827
0.0200932
0.0205754
0.0205209
0.0197096
0.0202808
0.0195
0.0201406
0.0208926
0.0207522
0.0208264
0.0206968
0.0199266
0.0198484
0.0203139
0.0203455
0.0197395
0.0195176
0.0203661
0.0202102
0.0208748
0.0210608
0.0214918
0.0217374
0.0212573
0.0214771
0.021987
0.0225069
0.0193693
0.0195188
0.0201292
0.0200916
0.0196343
0.019858
0.0198559
0.0200641
0.0215276
0.0211749
0.0226658
0.0217811
0.0209916
0.0211118
0.0213852
0.0216311
0.020142
0.0199303
0.0200715
0.0198114
0.0203475
0.0203126
0.0200585
0.019742
0.0200682
0.0197107
0.0203715
0.0204403
0.0204279
0.020404
0.0204218
0.0203948
0.0205708
0.0207484
0.0206324
0.0209316
0.0200709
0.0197014
0.02007
0.0197089
0.0204583
0.0204437
0.0200647
0.0197253
0.0200632
0.019744
0.0204087
0.0203736
0.0208007
0.0207797
0.0210229
0.0210115
0.0207177
0.0206506
0.0209405
0.0208566
0.0200961
0.0201643
0.0202782
0.0202966
0.0205548
0.0209599
0.0206114
0.0208651
0.0209987
0.0206736
0.0216143
0.0210911
0.0203513
0.020432
0.0202065
0.0201815
0.0210819
0.0211017
0.0209717
0.0210388
0.0210509
0.0209734
0.021045
0.0209993
0.0207373
0.0209068
0.020656
0.0208777
0.020998
0.0209868
0.0210064
0.0209922
0.0221426
0.0222216
0.0230365
0.0226518
0.0222835
0.0225101
0.0221976
0.0217254
0.0247889
0.0236663
0.0279035
0.0256917
0.0224746
0.0214989
0.023358
0.0217518
0.022727
0.0223555
0.0214568
0.0211167
0.0220922
0.0223482
0.0208586
0.0213965
0.0208675
0.0204455
0.0209715
0.0208862
0.0201469
0.0203245
0.0207884
0.0203367
0.0306918
0.0280829
0.0274148
0.0274366
0.0245021
0.0218455
0.0244479
0.0212555
0.0174247
0.0213671
0.00850666
0.0124051
0.0215861
0.0194456
0.0155584
0.0161453
0.0204786