# vtk DataFile Version 2.0
Gerris simulation version 1.3.2 (131206-155120)
ASCII
DATASET UNSTRUCTURED_GRID

POINTS 1089 float
-0.5 0.46875 0
-0.46875 0.46875 0
-0.5 0.5 0
-0.46875 0.5 0
-0.4375 0.46875 0
-0.4375 0.5 0
-0.5 0.4375 0
-0.46875 0.4375 0
-0.4375 0.4375 0
-0.40625 0.46875 0
-0.40625 0.5 0
-0.375 0.46875 0
-0.375 0.5 0
-0.40625 0.4375 0
-0.375 0.4375 0
-0.5 0.40625 0
-0.46875 0.40625 0
-0.4375 0.40625 0
-0.5 0.375 0
-0.46875 0.375 0
-0.4375 0.375 0
-0.40625 0.40625 0
-0.375 0.40625 0
-0.40625 0.375 0
-0.375 0.375 0
-0.34375 0.46875 0
-0.34375 0.5 0
-0.3125 0.46875 0
-0.3125 0.5 0
-0.34375 0.4375 0
-0.3125 0.4375 0
-0.28125 0.46875 0
-0.28125 0.5 0
-0.25 0.46875 0
-0.25 0.5 0
-0.28125 0.4375 0
-0.25 0.4375 0
-0.34375 0.40625 0
-0.3125 0.40625 0
-0.34375 0.375 0
-0.3125 0.375 0
-0.28125 0.40625 0
-0.25 0.40625 0
-0.28125 0.375 0
-0.25 0.375 0
-0.5 0.34375 0
-0.46875 0.34375 0
-0.4375 0.34375 0
-0.5 0.3125 0
-0.46875 0.3125 0
-0.4375 0.3125 0
-0.40625 0.34375 0
-0.375 0.34375 0
-0.40625 0.3125 0
-0.375 0.3125 0
-0.5 0.28125 0
-0.46875 0.28125 0
-0.4375 0.28125 0
-0.5 0.25 0
-0.46875 0.25 0
-0.4375 0.25 0
-0.40625 0.28125 0
-0.375 0.28125 0
-0.40625 0.25 0
-0.375 0.25 0
-0.34375 0.34375 0
-0.3125 0.34375 0
-0.34375 0.3125 0
-0.3125 0.3125 0
-0.28125 0.34375 0
-0.25 0.34375 0
-0.28125 0.3125 0
-0.25 0.3125 0
-0.34375 0.28125 0
-0.3125 0.28125 0
-0.34375 0.25 0
-0.3125 0.25 0
-0.28125 0.28125 0
-0.25 0.28125 0
-0.28125 0.25 0
-0.25 0.25 0
-0.21875 0.46875 0
-0.21875 0.5 0
-0.1875 0.46875 0
-0.1875 0.5 0
-0.21875 0.4375 0
-0.1875 0.4375 0
-0.15625 0.46875 0
-0.15625 0.5 0
-0.125 0.46875 0
-0.125 0.5 0
-0.15625 0.4375 0
-0.125 0.4375 0
-0.21875 0.40625 0
-0.1875 0.40625 0
-0.21875 0.375 0
-0.1875 0.375 0
-0.15625 0.40625 0
-0.125 0.40625 0
-0.15625 0.375 0
-0.125 0.375 0
-0.09375 0.46875 0
-0.09375 0.5 0
-0.0625 0.46875 0
-0.0625 0.5 0
-0.09375 0.4375 0
-0.0625 0.4375 0
-0.03125 0.46875 0
-0.03125 0.5 0
0 0.46875 0
0 0.5 0
-0.03125 0.4375 0
0 0.4375 0
-0.09375 0.40625 0
-0.0625 0.40625 0
-0.09375 0.375 0
-0.0625 0.375 0
-0.03125 0.40625 0
0 0.40625 0
-0.03125 0.375 0
0 0.375 0
-0.21875 0.34375 0
-0.1875 0.34375 0
-0.21875 0.3125 0
-0.1875 0.3125 0
-0.15625 0.34375 0
-0.125 0.34375 0
-0.15625 0.3125 0
-0.125 0.3125 0
-0.21875 0.28125 0
-0.1875 0.28125 0
-0.21875 0.25 0
-0.1875 0.25 0
-0.15625 0.28125 0
-0.125 0.28125 0
-0.15625 0.25 0
-0.125 0.25 0
-0.09375 0.34375 0
-0.0625 0.34375 0
-0.09375 0.3125 0
-0.0625 0.3125 0
-0.03125 0.34375 0
0 0.34375 0
-0.03125 0.3125 0
0 0.3125 0
-0.09375 0.28125 0
-0.0625 0.28125 0
-0.09375 0.25 0
-0.0625 0.25 0
-0.03125 0.28125 0
0 0.28125 0
-0.03125 0.25 0
0 0.25 0
-0.5 0.21875 0
-0.46875 0.21875 0
-0.4375 0.21875 0
-0.5 0.1875 0
-0.46875 0.1875 0
-0.4375 0.1875 0
-0.40625 0.21875 0
-0.375 0.21875 0
-0.40625 0.1875 0
-0.375 0.1875 0
-0.5 0.15625 0
-0.46875 0.15625 0
-0.4375 0.15625 0
-0.5 0.125 0
-0.46875 0.125 0
-0.4375 0.125 0
-0.40625 0.15625 0
-0.375 0.15625 0
-0.40625 0.125 0
-0.375 0.125 0
-0.34375 0.21875 0
-0.3125 0.21875 0
-0.34375 0.1875 0
-0.3125 0.1875 0
-0.28125 0.21875 0
-0.25 0.21875 0
-0.28125 0.1875 0
-0.25 0.1875 0
-0.34375 0.15625 0
-0.3125 0.15625 0
-0.34375 0.125 0
-0.3125 0.125 0
-0.28125 0.15625 0
-0.25 0.15625 0
-0.28125 0.125 0
-0.25 0.125 0
-0.5 0.09375 0
-0.46875 0.09375 0
-0.4375 0.09375 0
-0.5 0.0625 0
-0.46875 0.0625 0
-0.4375 0.0625 0
-0.40625 0.09375 0
-0.375 0.09375 0
-0.40625 0.0625 0
-0.375 0.0625 0
-0.5 0.03125 0
-0.46875 0.03125 0
-0.4375 0.03125 0
-0.5 0 0
-0.46875 0 0
-0.4375 0 0
-0.40625 0.03125 0
-0.375 0.03125 0
-0.40625 0 0
-0.375 0 0
-0.34375 0.09375 0
-0.3125 0.09375 0
-0.34375 0.0625 0
-0.3125 0.0625 0
-0.28125 0.09375 0
-0.25 0.09375 0
-0.28125 0.0625 0
-0.25 0.0625 0
-0.34375 0.03125 0
-0.3125 0.03125 0
-0.34375 0 0
-0.3125 0 0
-0.28125 0.03125 0
-0.25 0.03125 0
-0.28125 0 0
-0.25 0 0
-0.21875 0.21875 0
-0.1875 0.21875 0
-0.21875 0.1875 0
-0.1875 0.1875 0
-0.15625 0.21875 0
-0.125 0.21875 0
-0.15625 0.1875 0
-0.125 0.1875 0
-0.21875 0.15625 0
-0.1875 0.15625 0
-0.21875 0.125 0
-0.1875 0.125 0
-0.15625 0.15625 0
-0.125 0.15625 0
-0.15625 0.125 0
-0.125 0.125 0
-0.09375 0.21875 0
-0.0625 0.21875 0
-0.09375 0.1875 0
-0.0625 0.1875 0
-0.03125 0.21875 0
0 0.21875 0
-0.03125 0.1875 0
0 0.1875 0
-0.09375 0.15625 0
-0.0625 0.15625 0
-0.09375 0.125 0
-0.0625 0.125 0
-0.03125 0.15625 0
0 0.15625 0
-0.03125 0.125 0
0 0.125 0
-0.21875 0.09375 0
-0.1875 0.09375 0
-0.21875 0.0625 0
-0.1875 0.0625 0
-0.15625 0.09375 0
-0.125 0.09375 0
-0.15625 0.0625 0
-0.125 0.0625 0
-0.21875 0.03125 0
-0.1875 0.03125 0
-0.21875 0 0
-0.1875 0 0
-0.15625 0.03125 0
-0.125 0.03125 0
-0.15625 0 0
-0.125 0 0
-0.09375 0.09375 0
-0.0625 0.09375 0
-0.09375 0.0625 0
-0.0625 0.0625 0
-0.03125 0.09375 0
0 0.09375 0
-0.03125 0.0625 0
0 0.0625 0
-0.09375 0.03125 0
-0.0625 0.03125 0
-0.09375 0 0
-0.0625 0 0
-0.03125 0.03125 0
0 0.03125 0
-0.03125 0 0
0 0 0
0.03125 0.46875 0
0.03125 0.5 0
0.0625 0.46875 0
0.0625 0.5 0
0.03125 0.4375 0
0.0625 0.4375 0
0.09375 0.46875 0
0.09375 0.5 0
0.125 0.46875 0
0.125 0.5 0
0.09375 0.4375 0
0.125 0.4375 0
0.03125 0.40625 0
0.0625 0.40625 0
0.03125 0.375 0
0.0625 0.375 0
0.09375 0.40625 0
0.125 0.40625 0
0.09375 0.375 0
0.125 0.375 0
0.15625 0.46875 0
0.15625 0.5 0
0.1875 0.46875 0
0.1875 0.5 0
0.15625 0.4375 0
0.1875 0.4375 0
0.21875 0.46875 0
0.21875 0.5 0
0.25 0.46875 0
0.25 0.5 0
0.21875 0.4375 0
0.25 0.4375 0
0.15625 0.40625 0
0.1875 0.40625 0
0.15625 0.375 0
0.1875 0.375 0
0.21875 0.40625 0
0.25 0.40625 0
0.21875 0.375 0
0.25 0.375 0
0.03125 0.34375 0
0.0625 0.34375 0
0.03125 0.3125 0
0.0625 0.3125 0
0.09375 0.34375 0
0.125 0.34375 0
0.09375 0.3125 0
0.125 0.3125 0
0.03125 0.28125 0
0.0625 0.28125 0
0.03125 0.25 0
0.0625 0.25 0
0.09375 0.28125 0
0.125 0.28125 0
0.09375 0.25 0
0.125 0.25 0
0.15625 0.34375 0
0.1875 0.34375 0
0.15625 0.3125 0
0.1875 0.3125 0
0.21875 0.34375 0
0.25 0.34375 0
0.21875 0.3125 0
0.25 0.3125 0
0.15625 0.28125 0
0.1875 0.28125 0
0.15625 0.25 0
0.1875 0.25 0
0.21875 0.28125 0
0.25 0.28125 0
0.21875 0.25 0
0.25 0.25 0
0.28125 0.46875 0
0.28125 0.5 0
0.3125 0.46875 0
0.3125 0.5 0
0.28125 0.4375 0
0.3125 0.4375 0
0.34375 0.46875 0
0.34375 0.5 0
0.375 0.46875 0
0.375 0.5 0
0.34375 0.4375 0
0.375 0.4375 0
0.28125 0.40625 0
0.3125 0.40625 0
0.28125 0.375 0
0.3125 0.375 0
0.34375 0.40625 0
0.375 0.40625 0
0.34375 0.375 0
0.375 0.375 0
0.40625 0.46875 0
0.40625 0.5 0
0.4375 0.46875 0
0.4375 0.5 0
0.40625 0.4375 0
0.4375 0.4375 0
0.46875 0.46875 0
0.46875 0.5 0
0.5 0.46875 0
0.5 0.5 0
0.46875 0.4375 0
0.5 0.4375 0
0.40625 0.40625 0
0.4375 0.40625 0
0.40625 0.375 0
0.4375 0.375 0
0.46875 0.40625 0
0.5 0.40625 0
0.46875 0.375 0
0.5 0.375 0
0.28125 0.34375 0
0.3125 0.34375 0
0.28125 0.3125 0
0.3125 0.3125 0
0.34375 0.34375 0
0.375 0.34375 0
0.34375 0.3125 0
0.375 0.3125 0
0.28125 0.28125 0
0.3125 0.28125 0
0.28125 0.25 0
0.3125 0.25 0
0.34375 0.28125 0
0.375 0.28125 0
0.34375 0.25 0
0.375 0.25 0
0.40625 0.34375 0
0.4375 0.34375 0
0.40625 0.3125 0
0.4375 0.3125 0
0.46875 0.34375 0
0.5 0.34375 0
0.46875 0.3125 0
0.5 0.3125 0
0.40625 0.28125 0
0.4375 0.28125 0
0.40625 0.25 0
0.4375 0.25 0
0.46875 0.28125 0
0.5 0.28125 0
0.46875 0.25 0
0.5 0.25 0
0.03125 0.21875 0
0.0625 0.21875 0
0.03125 0.1875 0
0.0625 0.1875 0
0.09375 0.21875 0
0.125 0.21875 0
0.09375 0.1875 0
0.125 0.1875 0
0.03125 0.15625 0
0.0625 0.15625 0
0.03125 0.125 0
0.0625 0.125 0
0.09375 0.15625 0
0.125 0.15625 0
0.09375 0.125 0
0.125 0.125 0
0.15625 0.21875 0
0.1875 0.21875 0
0.15625 0.1875 0
0.1875 0.1875 0
0.21875 0.21875 0
0.25 0.21875 0
0.21875 0.1875 0
0.25 0.1875 0
0.15625 0.15625 0
0.1875 0.15625 0
0.15625 0.125 0
0.1875 0.125 0
0.21875 0.15625 0
0.25 0.15625 0
0.21875 0.125 0
0.25 0.125 0
0.03125 0.09375 0
0.0625 0.09375 0
0.03125 0.0625 0
0.0625 0.0625 0
0.09375 0.09375 0
0.125 0.09375 0
0.09375 0.0625 0
0.125 0.0625 0
0.03125 0.03125 0
0.0625 0.03125 0
0.03125 0 0
0.0625 0 0
0.09375 0.03125 0
0.125 0.03125 0
0.09375 0 0
0.125 0 0
0.15625 0.09375 0
0.1875 0.09375 0
0.15625 0.0625 0
0.1875 0.0625 0
0.21875 0.09375 0
0.25 0.09375 0
0.21875 0.0625 0
0.25 0.0625 0
0.15625 0.03125 0
0.1875 0.03125 0
0.15625 0 0
0.1875 0 0
0.21875 0.03125 0
0.25 0.03125 0
0.21875 0 0
0.25 0 0
0.28125 0.21875 0
0.3125 0.21875 0
0.28125 0.1875 0
0.3125 0.1875 0
0.34375 0.21875 0
0.375 0.21875 0
0.34375 0.1875 0
0.375 0.1875 0
0.28125 0.15625 0
0.3125 0.15625 0
0.28125 0.125 0
0.3125 0.125 0
0.34375 0.15625 0
0.375 0.15625 0
0.34375 0.125 0
0.375 0.125 0
0.40625 0.21875 0
0.4375 0.21875 0
0.40625 0.1875 0
0.4375 0.1875 0
0.46875 0.21875 0
0.5 0.21875 0
0.46875 0.1875 0
0.5 0.1875 0
0.40625 0.15625 0
0.4375 0.15625 0
0.40625 0.125 0
0.4375 0.125 0
0.46875 0.15625 0
0.5 0.15625 0
0.46875 0.125 0
0.5 0.125 0
0.28125 0.09375 0
0.3125 0.09375 0
0.28125 0.0625 0
0.3125 0.0625 0
0.34375 0.09375 0
0.375 0.09375 0
0.34375 0.0625 0
0.375 0.0625 0
0.28125 0.03125 0
0.3125 0.03125 0
0.28125 0 0
0.3125 0 0
0.34375 0.03125 0
0.375 0.03125 0
0.34375 0 0
0.375 0 0
0.40625 0.09375 0
0.4375 0.09375 0
0.40625 0.0625 0
0.4375 0.0625 0
0.46875 0.09375 0
0.5 0.09375 0
0.46875 0.0625 0
0.5 0.0625 0
0.40625 0.03125 0
0.4375 0.03125 0
0.40625 0 0
0.4375 0 0
0.46875 0.03125 0
0.5 0.03125 0
0.46875 0 0
0.5 0 0
-0.5 -0.03125 0
-0.46875 -0.03125 0
-0.4375 -0.03125 0
-0.5 -0.0625 0
-0.46875 -0.0625 0
-0.4375 -0.0625 0
-0.40625 -0.03125 0
-0.375 -0.03125 0
-0.40625 -0.0625 0
-0.375 -0.0625 0
-0.5 -0.09375 0
-0.46875 -0.09375 0
-0.4375 -0.09375 0
-0.5 -0.125 0
-0.46875 -0.125 0
-0.4375 -0.125 0
-0.40625 -0.09375 0
-0.375 -0.09375 0
-0.40625 -0.125 0
-0.375 -0.125 0
-0.34375 -0.03125 0
-0.3125 -0.03125 0
-0.34375 -0.0625 0
-0.3125 -0.0625 0
-0.28125 -0.03125 0
-0.25 -0.03125 0
-0.28125 -0.0625 0
-0.25 -0.0625 0
-0.34375 -0.09375 0
-0.3125 -0.09375 0
-0.34375 -0.125 0
-0.3125 -0.125 0
-0.28125 -0.09375 0
-0.25 -0.09375 0
-0.28125 -0.125 0
-0.25 -0.125 0
-0.5 -0.15625 0
-0.46875 -0.15625 0
-0.4375 -0.15625 0
-0.5 -0.1875 0
-0.46875 -0.1875 0
-0.4375 -0.1875 0
-0.40625 -0.15625 0
-0.375 -0.15625 0
[...]
POINT_DATA 1089
SCALARS T float
LOOKUP_TABLE default
0
0
0
0
0
0
0
0
0
0
0
0
0
0
0
0
0
0
0
0
0
0
0
0
0
0
0
0
0
0
0
0
0
0
0
0
0
0
0
0
0
0
0
0
0
0
0
0
0
0
0
0
0
0
0
0
0
0
0
0
0
0
0
0
0
0
0
0
0
0
0
0
0
0
0
0
0
0
0
0
0
0
0
0
0
0
0
0
0
0
0
0
0
0
0
0
0
0
0
0
0
0
0
0
0
0
0
0
0
0
0
0
0
0
0
0
0
0
0
0
0
0
0
0
0
0
0
0
0
0
0
0
0
0
0
0
0
0
0
0
0
0
0
0
0
0
0
0
0
0
0
0
0
0
0
0
0
0
0
0
0
0
0
0
0
0
0
0
0
0
0
0
0
0
0
0
0
0
0
0
0
0
0
0
0
0
0
0
0
0
0
0
0
0
0
0
0
0
0
0
0
0
0
0
0
0
0
0
0
0
0
0
0
0
0.00744018
0.0992159
0.345037
0
0.0946725
0.0101692
0.332301
0.443869
0.837577
0.822112
0.999981
0
0
0
0
0
0
0
0
0
0
0
0
0
0
0
0
0
0
0
0
0
0
0
0
0
0
0
0
0
0
0
0
0.0716608
0.134512
0.560042
0.634512
0.0910031
0.0207117
0.583123
0.391008
0.988381
1
1
1
0.99212
0.870296
1
1
0
0
0.130608
0.00243144
0
0
0
0
0.508919
0.130742
0.872182
0.401056
0
0
0.0288738
0
0
0
0
0
0
0
0
0
0
0
0
0
0
0
0
0
0
0
0
0
0
0
0
0
0
0
0
0
0
0
0
0
0
0
0
0
0
0
0
0
0
0
0
0
0
0
0
0
0
0
0
0.00611492
0.0104822
0.123081
0.210452
0.566936
0
0
0
0
0
0
0
0
0.274195
0.283431
0.774195
0.783431
0.140868
0.0190321
0.595342
0.233929
0
0
0
0
0
0
0
0
0
0
0
0
0
0
0
0
0
0
0
0
0
0
0
0
0
0
0
0
0
0
0
0
0
0
0
0
0
0
0
0
0
0
0
0
0
0
0
0
0
0
0.0104233
0
0
0
0
0
0
0
0
0
0
0
0
0
0
0
0
0
0
0
0
0
0
0.0857143
0
0.179763
0.529569
0.943855
0.679763
1
0
0.127847
0
0.0276831
0.616011
0.988164
0.31602
0.711153
1
1
1
1
0.954474
0.541047
1
0.654496
1
1
0.876911
0.857553
0.964855
0.55508
0.648188
0.256608
0
0
0
0
0.0501722
0.222989
0
0
0
0
0
0
0
0
0
0
0.376911
0.357553
0
0
0.183333
0.0298742
0
0
0
0
0.0057514
0.00636878
0
0
0.000617383
0
0.0865729
0
0.154496
0
0
0
0
0
0.0902243
0
0.011878
0
0
0
0
0
0
0
0
0
0
0
0
0
0
0
0
0
0
0
0
0
0
0
0
0
0
0
0
0
0
0
0
0
0
0
0
0
0
0
0
0
0
0
0
0
0
0
0
0
0
0
0
0
0
0
0
0
0
0
0
0
0
0
0
0
0
0
0
0
0
0
0
0
0.0819413
0.5594
0.191602
0.691602
0.977459
1
1
1
0.261613
0.761613
0.284646
0.784646
1
1
1
1
0
0
0
0
0
0
0
0
0
0
0
0
0
0
0
0
0
0
0
0
0.2658
0.7658
0.199947
0.699947
1
1
1
1
0.0892899
0.573412
0.0122796
0.355776
0.984122
1
0.843497
1
1
1
1
1
1
1
1
1
1
1
1
1
1
1
1
1
0.993871
0.629818
1
0.762626
0.135947
0
0.262626
0
1
0.830839
1
0.846238
0.330839
0
0.346238
0
1
1
1
1
1
1
1
1
1
1
1
1
1
1
1
0.999881
1
0.813996
1
0.729247
0.313996
0
0.229247
0
0.980295
0.578916
0.819512
0.33205
0.0986212
0
0.0124187
0
0
0
0
0
0
0
0
0
0
0
0
0
0
0
0
0
0
0
0
0
0
0.11064
0
0.00126459
0.478516
0.861045
0.119141
0.378452
0
0
0
0
0
0.0174064
0
0
0
0
0
0
0
0
0
0
0
0
0
0
0
0
0
0
0
0
0
0
0
0
0
0
0
0
0
0
0
0
0
0
0
0
0
0
0.993169
1
0.582828
0.639617
0.982401
0.827254
0.562585
0.340192
0.0896589
0.139617
0
0
0.0801834
0.0128192
0
0
0.434189
0.0893359
0.0949715
0
0
0
0
0
0
0
0
0
0
0
0
0
0
0
0
0
0
0
0
0
0
0
0
0
0
0
0
0
0
0
0
0
0
0
0
0
0
0
0
0
0
0
0
0
0
0
0
0
0
0.0452268
0.0121773
0.282175
0
0
0
0
0.0753494
0.550121
0.0911421
0.589395
0.292341
0.395681
0.761361
0.889221
0.149727
0.00116008
0.435882
0.0380241
0.974771
0.993338
0.962619
0.710849
0.585542
0.0922044
0.301823
0.0553404
0
0
0
0
0.02797
0.412089
0
0.136915
0
0
0
0
0
0.00104917
0
0
0.83023
0.456724
0.441556
0.313986
0.0106125
0
0.00934519
0
0.0739446
0.0746822
0
0
0.00178679
0
0
0
0
0
0
0
0
0
0
0
0
0
0
0
0
0
0
0
0
0
0
0
0
0
0
0
0
0
0
0
0
0
0
0
0
0
0
0
0
0
0
0
0
0
0
0
0
0
0
0
0
0
0
0
0
0
0
0
0
0
0
0
0
0
0
0
0
0
0
0
0
0
0
0
0
0
0
0
0
0
0
0
0
0
0
0
0
0
0
0
0
0
0
0
0
0
0
0
0
0
0
0
0
0
0
0
0
0
0
0
0
0
0
0
0
0
0
0
0
0
0
0
0
0
0
0
0
0
0
0
0
0
0
0
0
0
0
0
0
0
0
0
0
0
0
0
0
0
0
0
0
0
0
0
0
0
0
0
0
0
0
0
0
0
0
0
0
0
0
0
0
0
0
0
0
0
0
0
0
0
0
0
0
0
0
0
0
0
0
0
0
0
0
0

SCALARS P float
LOOKUP_TABLE default
-0.00909928
-0.00936559
-0.00887137
-0.00915631
-0.00965524
-0.00947853
-0.00931304
-0.00955658
-0.00981731
-0.00996461
-0.00983138
-0.0102876
-0.0102107
-0.0100914
-0.0103721
-0.00950604
-0.00972896
-0.00996609
-0.00967473
-0.00987967
-0.0100989
-0.0102139
-0.0104657
-0.0103295
-0.0105649
-0.0106124
-0.0106041
-0.0109209
-0.0109903
-0.0106487
-0.0109055
-0.0111897
-0.0113393
-0.0113879
-0.0116048
-0.0111235
-0.0112805
-0.0107114
-0.010937
-0.0107953
-0.0110074
-0.0111261
-0.011261
-0.0111858
-0.0113144
-0.00981318
-0.0100033
-0.0102108
-0.00991326
-0.0100918
-0.0102938
-0.0104334
-0.0106646
-0.0105179
-0.0107574
-0.0099619
-0.0101334
-0.0103372
-0.00994642
-0.0101152
-0.0103278
-0.0105729
-0.0108343
-0.0105855
-0.0108833
-0.0108946
-0.0111096
-0.011002
-0.011237
-0.0112938
-0.0114305
-0.0114442
-0.0116046
-0.0111101
-0.0113841
-0.0112092
-0.0115452
-0.0116339
-0.0118355
-0.0118622
-0.0121275
-0.01149
-0.0117498
-0.0114782
-0.0117474
-0.0113576
-0.0113415
-0.0113474
-0.0115914
-0.0111068
-0.0112981
-0.0112275
-0.01102
-0.0113259
-0.0113098
-0.0113782
-0.0113671
-0.0112073
-0.0110198
-0.0112742
-0.0110986
-0.010776
-0.0109008
-0.0103793
-0.0104362
-0.0107306
-0.010376
-0.00993822
-0.00993201
-0.00947608
-0.00941713
-0.0099721
-0.00953854
-0.0107536
-0.01042
-0.010843
-0.0105156
-0.01003
-0.00960097
-0.0101233
-0.00968102
-0.0115038
-0.0115026
-0.0116988
-0.0117142
-0.0114186
-0.0112485
-0.0116407
-0.0114729
-0.011963
-0.012002
-0.0123046
-0.0123759
-0.0119402
-0.0117691
-0.0123284
-0.0121471
-0.0109922
-0.010657
-0.011211
-0.0108635
-0.010244
-0.00976463
-0.0104284
-0.00991758
-0.0114915
-0.0111202
-0.0118431
-0.0114433
-0.0106566
-0.0101084
-0.0109697
-0.010424
-0.00984783
-0.0100207
-0.01025
-0.00965344
-0.00983506
-0.0100859
-0.0105404
-0.010891
-0.0104173
-0.0108364
-0.00935482
-0.00954468
-0.00981697
-0.00895395
-0.00913955
-0.00942052
-0.0101926
-0.0106932
-0.00982912
-0.0104158
-0.0112892
-0.0117162
-0.01133
-0.0118859
-0.0121327
-0.0124915
-0.0124491
-0.0129454
-0.0113101
-0.0120508
-0.0111768
-0.0121704
-0.0128313
-0.0135266
-0.0132789
-0.014281
-0.0084593
-0.00861234
-0.00887185
-0.00788257
-0.0079588
-0.00814544
-0.00928632
-0.00994908
-0.0085089
-0.00919508
-0.00723482
-0.00717922
-0.00721733
-0.00654738
-0.00629672
-0.00608158
-0.00743322
-0.00800418
-0.00599191
-0.0061359
-0.0108689
-0.0122496
-0.0102484
-0.0121756
-0.0138996
-0.0146834
-0.00697592
0.0101218
-0.00908551
-0.00501298
-0.00626523
0.0113417
0.0173023
0.0452206
0.0412124
0.0537261
-0.0127377
-0.0128516
-0.0132886
-0.0134584
-0.012822
-0.0126156
-0.0134501
-0.0131869
-0.0139981
-0.0142413
-0.0149327
-0.0152883
-0.0142695
-0.0138935
-0.0154009
-0.0148189
-0.0122603
-0.0118157
-0.0127271
-0.0121868
-0.0113424
-0.0108765
-0.0116862
-0.0113517
-0.0132265
-0.0124721
-0.0137597
-0.0125928
-0.0118217
-0.0114651
-0.0115589
-0.0108413
-0.0104256
-0.00587549
0.0257646
0.0313923
-0.00949803
-0.0143521
0.0275736
0.0131256
0.0562594
0.0571801
0.0540513
0.0542399
0.0570118
0.0476287
0.0542618
0.0537487
-0.0144644
-0.0126432
-0.00534879
-0.0124138
-0.0110388
-0.00986884
-0.0102566
-0.00870608
0.0210028
-0.00339048
0.0436585
0.0142908
-0.00912357
-0.00730142
-0.00580767
-0.00556247
-0.00901062
-0.00890772
-0.0085675
-0.00842906
-0.00909172
-0.0086592
-0.0081668
-0.00799753
-0.00783999
-0.00764382
-0.00826236
-0.0079387
-0.00914526
-0.0086952
-0.00919149
-0.00869238
-0.00827012
-0.00791995
-0.00818696
-0.00774936
-0.00761425
-0.0073881
-0.00750796
-0.00725457
-0.00773192
-0.00766077
-0.00750819
-0.0072347
-0.00758683
-0.00729656
-0.0077028
-0.00782492
-0.00772263
-0.00770163
-0.00754379
-0.00759347
-0.00781647
-0.00801726
-0.00782688
-0.00816791
-0.00920628
-0.00861498
-0.00928774
-0.00858595
-0.00796862
-0.00737773
-0.00766067
-0.00670597
-0.00939644
-0.00858079
-0.00976217
-0.00807998
-0.00615706
0.00720069
0.0169769
0.0580272
-0.00717183
-0.00735098
-0.00644426
-0.00680509
-0.00777927
-0.00833963
-0.00758496
-0.00857107
0.0239353
0.0245644
0.0812285
0.082821
0.00762986
-0.0071691
0.0613422
0.0175537
-0.00771794
-0.00742086
-0.0078732
-0.00757694
-0.00798556
-0.00815243
-0.00804668
-0.00775605
-0.00823012
-0.00794788
-0.00832687
-0.00850287
-0.0082306
-0.00841734
-0.00846735
-0.00867992
-0.00859567
-0.00876243
-0.00886049
-0.00901105
-0.00842482
-0.00815236
-0.00863214
-0.00837053
-0.0086861
-0.00887964
-0.00885592
-0.00860697
-0.00909928
-0.00886227
-0.00908787
-0.00931304
-0.00893144
-0.00910838
-0.00915971
-0.00931539
-0.00929923
-0.00950604
-0.00948634
-0.00967473
-0.0087424
-0.00896397
-0.00912706
-0.0093121
-0.00913024
-0.00924837
-0.00942436
-0.00947965
-0.00976611
-0.00973985
-0.0098167
-0.0103743
-0.00972266
-0.00967953
-0.0100418
-0.00984416
-0.00936633
-0.00949454
-0.00954891
-0.00963985
-0.00964289
-0.00981318
-0.00976129
-0.00991326
-0.00968431
-0.00973238
-0.00976136
-0.00975967
-0.00982607
-0.0099619
-0.00982463
-0.00994642
-0.0104899
0.00145427
-0.0113788
0.0127729
0.0551588
0.103143
0.0749907
0.112231
-0.0116374
0.00533052
-0.0104859
-0.00675316
0.0675443
0.112521
0.0303328
0.0785397
0.109719
0.110821
0.111395
0.111653
0.106511
0.0556232
0.112844
0.0710412
0.111823
0.111291
0.096104
0.0933441
0.10793
0.0588817
0.0700286
0.0236051
-0.00886651
-0.00811909
-0.00733305
-0.00611849
-0.0007713
0.021205
-0.00455902
-0.00242873
-0.00575677
-0.00432978
-0.00426917
-0.00289316
-0.00264125
-0.00061017
-0.00126964
0.0010292
0.039987
0.037695
-0.000331479
-0.000775738
0.0170192
-0.00200802
-0.00326201
-0.00523749
0.000837382
-0.00109639
0.00232943
-0.0021714
-0.00442189
-0.00591349
-0.00695698
-0.00731155
-0.000754824
-0.0107539
0.00889362
-0.0103342
-0.0101636
-0.00986075
-0.00985461
-0.00962562
0.00184609
-0.00949981
-0.00668399
-0.00842893
-0.00927508
-0.00918898
-0.00856189
-0.00864344
-0.00971687
-0.00968383
-0.00950741
-0.00948402
-0.00973196
-0.00984783
-0.00953478
-0.00965344
-0.00914951
-0.00916348
-0.0086989
-0.00875427
-0.0092297
-0.00935482
-0.00883192
-0.00895395
-0.00689536
-0.00754519
-0.00656945
-0.00724356
-0.00793657
-0.00813571
-0.00759757
-0.00777412
-0.00680616
-0.00729927
-0.00753358
-0.00771251
-0.00748307
-0.00754863
-0.00760734
-0.00747752
-0.00824207
-0.00830636
-0.00784388
-0.00786075
-0.00836759
-0.0084593
-0.00786208
-0.00788257
-0.00751459
-0.00743342
-0.00727883
-0.00705401
-0.00733131
-0.00723482
-0.00680735
-0.00654738
-0.00585777
-0.00536178
-0.00479954
-0.00524427
-0.00449903
-0.00356976
-0.00421604
-0.00357388
-0.00240337
-0.000828237
-0.00477854
-0.0038489
-0.00264106
-0.00454207
-0.00353942
-0.00222434
-0.000994392
0.00131874
-0.00037587
0.0022193
0.00031406
0.0245837
0.00786881
0.0300011
0.0476183
0.0504277
0.0456393
0.0477404
0.0121769
0.0318732
0.0135214
0.0323152
0.0434872
0.0459586
0.0427849
0.0453795
-0.00455916
-0.0036267
-0.00241513
-0.00480758
-0.00406722
-0.00313655
-0.000734863
0.00161777
-0.00192434
-0.000276772
-0.00523525
-0.00475752
-0.00420842
-0.00574735
-0.00553545
-0.00535954
-0.00360332
-0.0029151
-0.00529397
-0.00546639
0.0125267
0.0320774
0.00865059
0.0304566
0.0435058
0.0459923
0.0456431
0.0478462
0.00131137
0.025654
-0.00546862
0.0134962
0.0481918
0.0507713
0.043279
0.0545148
0.05121
0.0515029
0.0489254
0.0492694
0.0512294
0.0502898
0.0488524
0.0475483
0.047417
0.0477752
0.0469057
0.0472324
0.04725
0.0456549
0.0466208
0.0448417
0.0480962
0.0267097
0.0453515
0.0314851
0.00166322
-0.00341074
0.0087236
-0.00201271
0.0431231
0.0327152
0.0420648
0.0323434
0.011564
-0.00197857
0.0118903
-0.0023091
0.0474341
0.0476933
0.0490196
0.049182
0.0470192
0.0452203
0.0484604
0.0468148
0.0515353
0.0515531
0.0548216
0.054584
0.0507798
0.0493264
0.0537124
0.052253
0.0424521
0.0313757
0.0442507
0.0290172
0.0103162
-0.00307535
0.00619941
-0.00414436
0.0459222
0.0231611
0.0391591
0.0101158
-0.0010215
-0.00540246
-0.00679581
-0.00676732
-0.00628502
-0.00628718
-0.00639193
-0.00679175
-0.00695082
-0.00723509
-0.0066736
-0.007337
-0.00770154
-0.00852001
-0.00725285
-0.00750848
-0.00788454
-0.0076602
-0.00796891
-0.00838113
-0.00842192
-0.00922757
-0.00892331
-0.00965441
-0.00851415
-0.00337361
-0.0097315
-0.0117968
0.0207114
0.0484304
-0.00512375
0.0135083
-0.0103229
-0.0119469
-0.0105763
-0.0117528
-0.0139358
-0.0140825
-0.0130864
-0.0142819
-0.00801845
-0.00834594
-0.00875592
-0.00833343
-0.00865873
-0.00904659
-0.00926338
-0.00989672
-0.00950365
-0.0100402
-0.00861407
-0.00892456
-0.00928084
-0.00886227
-0.00915631
-0.00947853
-0.00968408
-0.0101349
-0.00983138
-0.0102107
-0.0106496
-0.0115238
-0.0106452
-0.0112995
-0.0124459
-0.0132287
-0.01195
-0.0124814
-0.0106207
-0.0111185
-0.0106041
-0.0109903
-0.0115882
-0.0119578
-0.0113393
-0.0116048
0.0581685
0.0581068
0.0288239
0.0330593
0.0559962
0.0437089
0.0267942
0.0104203
-0.00896024
-0.00494812
-0.0150726
-0.0152034
-0.00921196
-0.0133802
-0.0146146
-0.01349
0.0163518
-0.00485059
-0.00616808
-0.0110607
-0.00864104
-0.00768477
-0.0094152
-0.00833427
-0.0127825
-0.0111668
-0.0122508
-0.0110463
-0.00979995
-0.00874954
-0.00994476
-0.00900408
-0.013723
-0.0137953
-0.0128028
-0.0128392
-0.0134128
-0.0126773
-0.0125758
-0.0120634
-0.0121706
-0.0121831
-0.0117498
-0.0117474
-0.0119864
-0.0116096
-0.0115914
-0.0112981
-0.0117992
-0.0108825
-0.011411
-0.0106987
-0.00998772
-0.00917133
-0.0099725
-0.00927771
-0.0111113
-0.0105453
-0.0109008
-0.0104362
-0.00994761
-0.0093547
-0.00993201
-0.00941713
-0.00282556
-0.00161363
-0.00262192
-0.00238378
-0.000281666
0.00689934
0.000581806
0.0329964
-0.00466221
-0.00762137
-0.00645301
-0.0118013
0.00568956
0.0669729
0.000980168
0.0731575
0.0283957
0.0348048
0.0806191
0.0965776
0.00837209
-0.00916649
0.0439915
-0.00960577
0.114724
0.117943
0.119631
0.0759999
0.0642895
-0.000282161
0.0215029
-0.00339886
-0.00728458
-0.0129343
-0.00703978
-0.010693
-0.0172733
0.0342503
-0.0187585
-0.00305688
-0.00634012
-0.00705944
-0.00657781
-0.00619814
-0.008806
-0.00543666
-0.0054904
-0.0025272
0.0839885
0.0262308
0.0258286
0.00513087
-0.0232754
-0.0149981
-0.0177929
-0.0117047
0.00405978
-8.50038e-05
0.00469261
0.00353171
-0.00761345
-0.00685815
-0.00301226
-0.00473346
-0.00875847
-0.00845314
-0.0115894
-0.00977354
-0.00793909
-0.00753388
-0.00845785
-0.00766356
-0.00945772
-0.00898193
-0.00815521
-0.00840444
-0.0081378
-0.0074657
-0.00789286
-0.00730553
-0.00712233
-0.00672431
-0.0070184
-0.00645206
-0.00630943
-0.00585777
-0.00587901
-0.00524427
-0.00681898
-0.00619648
-0.00667647
-0.00603815
-0.00553531
-0.00477854
-0.0053446
-0.00454207
-0.0109906
-0.00913402
-0.00962516
-0.00828202
-0.00803283
-0.00724876
-0.0075558
-0.00698344
-0.00729681
-0.00717057
-0.00601011
-0.00639595
-0.0069577
-0.00669103
-0.00651037
-0.00647074
-0.00658786
-0.00596851
-0.00646727
-0.00596431
-0.00531179
-0.00455916
-0.00542338
-0.00480758
-0.00637861
-0.00603863
-0.00634469
-0.00617197
-0.00566006
-0.00523525
-0.00596773
-0.00574735
-0.00692449
-0.00610002
-0.00737186
-0.00644572
-0.00495551
-0.00306366
-0.00534307
-0.00403138
-0.00778523
-0.00689194
-0.00812381
-0.00731715
-0.00594057
-0.0050029
-0.00651814
-0.00580268
0.000508213
0.000139885
-0.00218363
-0.00222564
-0.00307162
-0.00439067
-0.00371418
-0.00457518
-0.0039651
-0.00388109
-0.00514463
-0.00499755
-0.00456861
-0.00509183
-0.00528648
-0.00559413
-0.00839764
-0.00768937
-0.00861016
-0.0079954
-0.00702072
-0.00645191
-0.00743056
-0.00696056
-0.00877708
-0.00824038
-0.00890772
-0.00842906
-0.00775429
-0.00735395
-0.00799753
-0.00764382
-0.00598682
-0.00582303
-0.0065986
-0.00643365
-0.00592676
-0.00610411
-0.00645031
-0.00655446
-0.00705597
-0.00690313
-0.0073881
-0.00725457
-0.00688621
-0.00695518
-0.0072347
-0.00729656
-0.0055439
-0.00605726
-0.00543649
-0.00593042
-0.00632212
-0.00641922
-0.00625709
-0.0064461
-0.00567509
-0.00607575
-0.00598562
-0.00630543
-0.00638482
-0.00660401
-0.00658638
-0.0068172
-0.00642712
-0.00638835
-0.00655976
-0.00663356
-0.00633145
-0.00628502
-0.00669975
-0.00679175
-0.00677387
-0.00691937
-0.00702104
-0.00721406
-0.00706881
-0.00725285
-0.00741867
-0.0076602
-0.00636527
-0.00661474
-0.00673727
-0.00693849
-0.00685896
-0.00708327
-0.00715326
-0.00736724
-0.00709495
-0.00726533
-0.00742086
-0.00757694
-0.00745772
-0.0076597
-0.00775605
-0.00794788
-0.00729905
-0.00751567
-0.0075848
-0.00781081
-0.00774921
-0.00801845
-0.00805604
-0.00833343
-0.00787213
-0.00809716
-0.00815236
-0.00837053
-0.0083417
-0.00861407
-0.00860697
-0.00887137

SCALARS U float
LOOKUP_TABLE default
0.0230055
0.0233551
0.0229659
0.0233577
0.0236818
0.0237585
0.0230721
0.0233738
0.0236403
0.0239632
0.024135
0.0241617
0.0244445
0.0238496
0.0239682
0.0231701
0.023432
0.0236569
0.0232993
0.0235328
0.0237374
0.0238212
0.023893
0.0238857
0.0239439
0.0242259
0.0246231
0.0240945
0.0245904
0.0239541
0.023761
0.0236972
0.024229
0.0229926
0.0234617
0.0233446
0.022683
0.023835
0.0236088
0.0238743
0.0236393
0.0231824
0.0225429
0.023209
0.0225716
0.0234463
0.0236684
0.0238778
0.0235797
0.0238192
0.0240655
0.0240414
0.0241204
0.0242803
0.0244187
0.0236658
0.0239614
0.0242815
0.0236683
0.0240646
0.0244935
0.0245868
0.0248263
0.0249235
0.0253008
0.0240717
0.0238517
0.0244278
0.024251
0.0234237
0.02277
0.0238356
0.0231496
0.0249345
0.0248354
0.0255481
0.0255674
0.0244493
0.0237179
0.0252397
0.0244621
0.0220144
0.0223366
0.0208368
0.0209515
0.0218024
0.0207611
0.0195744
0.0194609
0.0183615
0.0180542
0.0196462
0.0185562
0.0217123
0.0207394
0.0217465
0.0207791
0.0196945
0.0186554
0.0197338
0.018679
0.0173057
0.0168798
0.016471
0.0160097
0.0175727
0.01675
0.0158669
0.0154258
0.0154751
0.0150743
0.01611
0.0156541
0.0176863
0.0168314
0.0176693
0.0167371
0.0161155
0.0155492
0.0159012
0.015166
0.0219083
0.0208872
0.0222102
0.0210785
0.0197766
0.0186487
0.0198466
0.0186127
0.0226596
0.0213607
0.0232549
0.0217435
0.019954
0.018592
0.0201182
0.0186238
0.0175585
0.0165244
0.0174517
0.0163803
0.0155522
0.0146211
0.0153983
0.0143892
0.0174018
0.0164336
0.0175035
0.0169188
0.0156812
0.0148666
0.0169406
0.0173961
0.0235931
0.024106
0.0246511
0.0234615
0.024045
0.0246565
0.0252119
0.0257352
0.0252935
0.0259126
0.023297
0.0238204
0.024368
0.0230315
0.0233173
0.0236126
0.0249483
0.0255665
0.0239717
0.0245487
0.0261413
0.0263226
0.0264753
0.0269124
0.0261075
0.0253136
0.0269683
0.0262781
0.0263408
0.0273391
0.0258776
0.0282871
0.028089
0.0277357
0.0305577
0.0306468
0.0225547
0.0224596
0.0223558
0.0218325
0.0213083
0.0207862
0.0224402
0.0231867
0.0207024
0.0219463
0.0209816
0.0201291
0.0193524
0.0202014
0.0192756
0.018529
0.0192734
0.0211055
0.0184585
0.0202917
0.0259215
0.0307785
0.0266424
0.0330161
0.0343341
0.0333907
0.0340342
0.0289486
0.026729
0.0310362
0.0240295
0.0227685
0.0260654
0.0181214
0.0145185
0.0105147
0.0239599
0.0222222
0.0248163
0.0228227
0.020337
0.0186689
0.0205588
0.0185489
0.0261289
0.0236832
0.0283677
0.0248268
0.020651
0.0178475
0.0201868
0.0156132
0.017635
0.0175498
0.0174287
0.0176017
0.0186344
0.0209956
0.0192036
0.0222879
0.0163648
0.0166065
0.0133371
0.0140277
0.0180221
0.0199859
0.0158287
0.0164431
0.0291804
0.0244459
0.0234002
0.0202238
0.0185979
0.0117763
0.0173593
0.0117653
0.0157368
0.0176221
0.0139879
0.0195691
0.0208365
0.0209325
0.0260227
0.0317553
0.00773926
0.00915468
0.00499043
0.00419926
0.0133567
0.0151315
0.010622
0.0156541
0.0135569
0.0071856
0.0297139
0.0212841
0.0113196
0.0180711
0.0192604
0.0238244
0.0152894
0.0149403
0.0152945
0.0150053
0.0153888
0.0153108
0.0154938
0.0152744
0.0158947
0.0157493
0.0154374
0.0158101
0.0151572
0.0149566
0.0145766
0.0141474
0.01499
0.0153926
0.0139335
0.014362
0.0165106
0.0164268
0.0172945
0.0172644
0.0164892
0.0173888
0.0181074
0.0181051
0.0188954
0.0188934
0.0182956
0.0191334
0.0163465
0.0176512
0.0159678
0.0182522
0.0188455
0.0197862
0.0201014
0.0211735
0.013768
0.0128596
0.0132115
0.0110326
0.0118805
0.0120954
0.00787722
0.00758448
0.0135481
0.00999193
0.0179691
0.0175011
0.00534762
0.00595528
0.0176019
0.0201157
0.0150597
0.0195417
0.013252
0.0217369
0.0227457
0.0238094
0.0276819
0.0287305
0.013175
0.0226582
0.0211715
0.0203151
0.0306908
0.0329045
0.0223594
0.0255071
0.0196277
0.0196119
0.0202882
0.0202456
0.0198727
0.020522
0.0208772
0.0208081
0.0213905
0.0213014
0.0210922
0.0215801
0.0204906
0.0210513
0.0216765
0.0219777
0.0215235
0.0219123
0.0222233
0.0224077
0.021846
0.0217466
0.0222564
0.0221588
0.0220095
0.0223922
0.0226401
0.0225579
0.0230055
0.0229457
0.0227447
0.0230721
0.0222613
0.0225811
0.0226052
0.0228206
0.0228845
0.0231701
0.0230569
0.0232993
0.02359
0.0232659
0.0265967
0.0247422
0.0231251
0.0230087
0.0239516
0.0234965
0.0291892
0.025561
0.0249598
0.0231508
0.0241663
0.0235416
0.0226501
0.0226245