# vtk DataFile Version 2.0
Gerris simulation version 1.3.2 (131206-155120)
ASCII
DATASET UNSTRUCTURED_GRID

POINTS 1089 float
-0.5 0.46875 0
-0.46875 0.46875 0
-0.5 0.5 0
-0.46875 0.5 0
-0.4375 0.46875 0
-0.4375 0.5 0
-0.5 0.4375 0
-0.46875 0.4375 0
-0.4375 0.4375 0
-0.40625 0.46875 0
-0.40625 0.5 0
-0.375 0.46875 0
-0.375 0.5 0
-0.40625 0.4375 0
-0.375 0.4375 0
-0.5 0.40625 0
-0.46875 0.40625 0
-0.4375 0.40625 0
-0.5 0.375 0
-0.46875 0.375 0
-0.4375 0.375 0
-0.40625 0.40625 0
-0.375 0.40625 0
-0.40625 0.375 0
-0.375 0.375 0
-0.34375 0.46875 0
-0.34375 0.5 0
-0.3125 0.46875 0
-0.3125 0.5 0
-0.34375 0.4375 0
-0.3125 0.4375 0
-0.28125 0.46875 0
-0.28125 0.5 0
-0.25 0.46875 0
-0.25 0.5 0
-0.28125 0.4375 0
-0.25 0.4375 0
-0.34375 0.40625 0
-0.3125 0.40625 0
-0.34375 0.375 0
-0.3125 0.375 0
-0.28125 0.40625 0
-0.25 0.40625 0
-0.28125 0.375 0
-0.25 0.375 0
-0.5 0.34375 0
-0.46875 0.34375 0
-0.4375 0.34375 0
-0.5 0.3125 0
-0.46875 0.3125 0
-0.4375 0.3125 0
-0.40625 0.34375 0
-0.375 0.34375 0
-0.40625 0.3125 0
-0.375 0.3125 0
-0.5 0.28125 0
-0.46875 0.28125 0
-0.4375 0.28125 0
-0.5 0.25 0
-0.46875 0.25 0
-0.4375 0.25 0
-0.40625 0.28125 0
-0.375 0.28125 0
-0.40625 0.25 0
-0.375 0.25 0
-0.34375 0.34375 0
-0.3125 0.34375 0
-0.34375 0.3125 0
-0.3125 0.3125 0
-0.28125 0.34375 0
-0.25 0.34375 0
-0.28125 0.3125 0
-0.25 0.3125 0
-0.34375 0.28125 0
-0.3125 0.28125 0
-0.34375 0.25 0
-0.3125 0.25 0
-0.28125 0.28125 0
-0.25 0.28125 0
-0.28125 0.25 0
-0.25 0.25 0
-0.21875 0.46875 0
-0.21875 0.5 0
-0.1875 0.46875 0
-0.1875 0.5 0
-0.21875 0.4375 0
-0.1875 0.4375 0
-0.15625 0.46875 0
-0.15625 0.5 0
-0.125 0.46875 0
-0.125 0.5 0
-0.15625 0.4375 0
-0.125 0.4375 0
-0.21875 0.40625 0
-0.1875 0.40625 0
-0.21875 0.375 0
-0.1875 0.375 0
-0.15625 0.40625 0
-0.125 0.40625 0
-0.15625 0.375 0
-0.125 0.375 0
-0.09375 0.46875 0
-0.09375 0.5 0
-0.0625 0.46875 0
-0.0625 0.5 0
-0.09375 0.4375 0
-0.0625 0.4375 0
-0.03125 0.46875 0
-0.03125 0.5 0
0 0.46875 0
0 0.5 0
-0.03125 0.4375 0
0 0.4375 0
-0.09375 0.40625 0
-0.0625 0.40625 0
-0.09375 0.375 0
-0.0625 0.375 0
-0.03125 0.40625 0
0 0.40625 0
-0.03125 0.375 0
0 0.375 0
-0.21875 0.34375 0
-0.1875 0.34375 0
-0.21875 0.3125 0
-0.1875 0.3125 0
-0.15625 0.34375 0
-0.125 0.34375 0
-0.15625 0.3125 0
-0.125 0.3125 0
-0.21875 0.28125 0
-0.1875 0.28125 0
-0.21875 0.25 0
-0.1875 0.25 0
-0.15625 0.28125 0
-0.125 0.28125 0
-0.15625 0.25 0
-0.125 0.25 0
-0.09375 0.34375 0
-0.0625 0.34375 0
-0.09375 0.3125 0
-0.0625 0.3125 0
-0.03125 0.34375 0
0 0.34375 0
-0.03125 0.3125 0
0 0.3125 0
-0.09375 0.28125 0
-0.0625 0.28125 0
-0.09375 0.25 0
-0.0625 0.25 0
-0.03125 0.28125 0
0 0.28125 0
-0.03125 0.25 0
0 0.25 0
-0.5 0.21875 0
-0.46875 0.21875 0
-0.4375 0.21875 0
-0.5 0.1875 0
-0.46875 0.1875 0
-0.4375 0.1875 0
-0.40625 0.21875 0
-0.375 0.21875 0
-0.40625 0.1875 0
-0.375 0.1875 0
-0.5 0.15625 0
-0.46875 0.15625 0
-0.4375 0.15625 0
-0.5 0.125 0
-0.46875 0.125 0
-0.4375 0.125 0
-0.40625 0.15625 0
-0.375 0.15625 0
-0.40625 0.125 0
-0.375 0.125 0
-0.34375 0.21875 0
-0.3125 0.21875 0
-0.34375 0.1875 0
-0.3125 0.1875 0
-0.28125 0.21875 0
-0.25 0.21875 0
-0.28125 0.1875 0
-0.25 0.1875 0
-0.34375 0.15625 0
-0.3125 0.15625 0
-0.34375 0.125 0
-0.3125 0.125 0
-0.28125 0.15625 0
-0.25 0.15625 0
-0.28125 0.125 0
-0.25 0.125 0
-0.5 0.09375 0
-0.46875 0.09375 0
-0.4375 0.09375 0
-0.5 0.0625 0
-0.46875 0.0625 0
-0.4375 0.0625 0
-0.40625 0.09375 0
-0.375 0.09375 0
-0.40625 0.0625 0
-0.375 0.0625 0
-0.5 0.03125 0
-0.46875 0.03125 0
-0.4375 0.03125 0
-0.5 0 0
-0.46875 0 0
-0.4375 0 0
-0.40625 0.03125 0
-0.375 0.03125 0
-0.40625 0 0
-0.375 0 0
-0.34375 0.09375 0
-0.3125 0.09375 0
-0.34375 0.0625 0
-0.3125 0.0625 0
-0.28125 0.09375 0
-0.25 0.09375 0
-0.28125 0.0625 0
-0.25 0.0625 0
-0.34375 0.03125 0
-0.3125 0.03125 0
-0.34375 0 0
-0.3125 0 0
-0.28125 0.03125 0
-0.25 0.03125 0
-0.28125 0 0
-0.25 0 0
-0.21875 0.21875 0
-0.1875 0.21875 0
-0.21875 0.1875 0
-0.1875 0.1875 0
-0.15625 0.21875 0
-0.125 0.21875 0
-0.15625 0.1875 0
-0.125 0.1875 0
-0.21875 0.15625 0
-0.1875 0.15625 0
-0.21875 0.125 0
-0.1875 0.125 0
-0.15625 0.15625 0
-0.125 0.15625 0
-0.15625 0.125 0
-0.125 0.125 0
-0.09375 0.21875 0
-0.0625 0.21875 0
-0.09375 0.1875 0
-0.0625 0.1875 0
-0.03125 0.21875 0
0 0.21875 0
-0.03125 0.1875 0
0 0.1875 0
-0.09375 0.15625 0
-0.0625 0.15625 0
-0.09375 0.125 0
-0.0625 0.125 0
-0.03125 0.15625 0
0 0.15625 0
-0.03125 0.125 0
0 0.125 0
-0.21875 0.09375 0
-0.1875 0.09375 0
-0.21875 0.0625 0
-0.1875 0.0625 0
-0.15625 0.09375 0
-0.125 0.09375 0
-0.15625 0.0625 0
-0.125 0.0625 0
-0.21875 0.03125 0
-0.1875 0.03125 0
-0.21875 0 0
-0.1875 0 0
-0.15625 0.03125 0
-0.125 0.03125 0
-0.15625 0 0
-0.125 0 0
-0.09375 0.09375 0
-0.0625 0.09375 0
-0.09375 0.0625 0
-0.0625 0.0625 0
-0.03125 0.09375 0
0 0.09375 0
-0.03125 0.0625 0
0 0.0625 0
-0.09375 0.03125 0
-0.0625 0.03125 0
-0.09375 0 0
-0.0625 0 0
-0.03125 0.03125 0
0 0.03125 0
-0.03125 0 0
0 0 0
0.03125 0.46875 0
0.03125 0.5 0
0.0625 0.46875 0
0.0625 0.5 0
0.03125 0.4375 0
0.0625 0.4375 0
0.09375 0.46875 0
0.09375 0.5 0
0.125 0.46875 0
0.125 0.5 0
0.09375 0.4375 0
0.125 0.4375 0
0.03125 0.40625 0
0.0625 0.40625 0
0.03125 0.375 0
0.0625 0.375 0
0.09375 0.40625 0
0.125 0.40625 0
0.09375 0.375 0
0.125 0.375 0
0.15625 0.46875 0
0.15625 0.5 0
0.1875 0.46875 0
0.1875 0.5 0
0.15625 0.4375 0
0.1875 0.4375 0
0.21875 0.46875 0
0.21875 0.5 0
0.25 0.46875 0
0.25 0.5 0
0.21875 0.4375 0
0.25 0.4375 0
0.15625 0.40625 0
0.1875 0.40625 0
0.15625 0.375 0
0.1875 0.375 0
0.21875 0.40625 0
0.25 0.40625 0
0.21875 0.375 0
0.25 0.375 0
0.03125 0.34375 0
0.0625 0.34375 0
0.03125 0.3125 0
0.0625 0.3125 0
0.09375 0.34375 0
0.125 0.34375 0
0.09375 0.3125 0
0.125 0.3125 0
0.03125 0.28125 0
0.0625 0.28125 0
0.03125 0.25 0
0.0625 0.25 0
0.09375 0.28125 0
0.125 0.28125 0
0.09375 0.25 0
0.125 0.25 0
0.15625 0.34375 0
0.1875 0.34375 0
0.15625 0.3125 0
0.1875 0.3125 0
0.21875 0.34375 0
0.25 0.34375 0
0.21875 0.3125 0
0.25 0.3125 0
0.15625 0.28125 0
0.1875 0.28125 0
0.15625 0.25 0
0.1875 0.25 0
0.21875 0.28125 0
0.25 0.28125 0
0.21875 0.25 0
0.25 0.25 0
0.28125 0.46875 0
0.28125 0.5 0
0.3125 0.46875 0
0.3125 0.5 0
0.28125 0.4375 0
0.3125 0.4375 0
0.34375 0.46875 0
0.34375 0.5 0
0.375 0.46875 0
0.375 0.5 0
0.34375 0.4375 0
0.375 0.4375 0
0.28125 0.40625 0
0.3125 0.40625 0
0.28125 0.375 0
0.3125 0.375 0
0.34375 0.40625 0
0.375 0.40625 0
0.34375 0.375 0
0.375 0.375 0
0.40625 0.46875 0
0.40625 0.5 0
0.4375 0.46875 0
0.4375 0.5 0
0.40625 0.4375 0
0.4375 0.4375 0
0.46875 0.46875 0
0.46875 0.5 0
0.5 0.46875 0
0.5 0.5 0
0.46875 0.4375 0
0.5 0.4375 0
0.40625 0.40625 0
0.4375 0.40625 0
0.40625 0.375 0
0.4375 0.375 0
0.46875 0.40625 0
0.5 0.40625 0
0.46875 0.375 0
0.5 0.375 0
0.28125 0.34375 0
0.3125 0.34375 0
0.28125 0.3125 0
0.3125 0.3125 0
0.34375 0.34375 0
0.375 0.34375 0
0.34375 0.3125 0
0.375 0.3125 0
0.28125 0.28125 0
0.3125 0.28125 0
0.28125 0.25 0
0.3125 0.25 0
0.34375 0.28125 0
0.375 0.28125 0
0.34375 0.25 0
0.375 0.25 0
0.40625 0.34375 0
0.4375 0.34375 0
0.40625 0.3125 0
0.4375 0.3125 0
0.46875 0.34375 0
0.5 0.34375 0
0.46875 0.3125 0
0.5 0.3125 0
0.40625 0.28125 0
0.4375 0.28125 0
0.40625 0.25 0
0.4375 0.25 0
0.46875 0.28125 0
0.5 0.28125 0
0.46875 0.25 0
0.5 0.25 0
0.03125 0.21875 0
0.0625 0.21875 0
0.03125 0.1875 0
0.0625 0.1875 0
0.09375 0.21875 0
0.125 0.21875 0
0.09375 0.1875 0
0.125 0.1875 0
0.03125 0.15625 0
0.0625 0.15625 0
0.03125 0.125 0
0.0625 0.125 0
0.09375 0.15625 0
0.125 0.15625 0
0.09375 0.125 0
0.125 0.125 0
0.15625 0.21875 0
0.1875 0.21875 0
0.15625 0.1875 0
0.1875 0.1875 0
0.21875 0.21875 0
0.25 0.21875 0
0.21875 0.1875 0
0.25 0.1875 0
0.15625 0.15625 0
0.1875 0.15625 0
0.15625 0.125 0
0.1875 0.125 0
0.21875 0.15625 0
0.25 0.15625 0
0.21875 0.125 0
0.25 0.125 0
0.03125 0.09375 0
0.0625 0.09375 0
0.03125 0.0625 0
0.0625 0.0625 0
0.09375 0.09375 0
0.125 0.09375 0
0.09375 0.0625 0
0.125 0.0625 0
0.03125 0.03125 0
0.0625 0.03125 0
0.03125 0 0
0.0625 0 0
0.09375 0.03125 0
0.125 0.03125 0
0.09375 0 0
0.125 0 0
0.15625 0.09375 0
0.1875 0.09375 0
0.15625 0.0625 0
0.1875 0.0625 0
0.21875 0.09375 0
0.25 0.09375 0
0.21875 0.0625 0
0.25 0.0625 0
0.15625 0.03125 0
0.1875 0.03125 0
0.15625 0 0
0.1875 0 0
0.21875 0.03125 0
0.25 0.03125 0
0.21875 0 0
0.25 0 0
0.28125 0.21875 0
0.3125 0.21875 0
0.28125 0.1875 0
0.3125 0.1875 0
0.34375 0.21875 0
0.375 0.21875 0
0.34375 0.1875 0
0.375 0.1875 0
0.28125 0.15625 0
0.3125 0.15625 0
0.28125 0.125 0
0.3125 0.125 0
0.34375 0.15625 0
0.375 0.15625 0
0.34375 0.125 0
0.375 0.125 0
0.40625 0.21875 0
0.4375 0.21875 0
0.40625 0.1875 0
0.4375 0.1875 0
0.46875 0.21875 0
0.5 0.21875 0
0.46875 0.1875 0
0.5 0.1875 0
0.40625 0.15625 0
0.4375 0.15625 0
0.40625 0.125 0
0.4375 0.125 0
0.46875 0.15625 0
0.5 0.15625 0
0.46875 0.125 0
0.5 0.125 0
0.28125 0.09375 0
0.3125 0.09375 0
0.28125 0.0625 0
0.3125 0.0625 0
0.34375 0.09375 0
0.375 0.09375 0
0.34375 0.0625 0
0.375 0.0625 0
0.28125 0.03125 0
0.3125 0.03125 0
0.28125 0 0
0.3125 0 0
0.34375 0.03125 0
0.375 0.03125 0
0.34375 0 0
0.375 0 0
0.40625 0.09375 0
0.4375 0.09375 0
0.40625 0.0625 0
0.4375 0.0625 0
0.46875 0.09375 0
0.5 0.09375 0
0.46875 0.0625 0
0.5 0.0625 0
0.40625 0.03125 0
0.4375 0.03125 0
0.40625 0 0
0.4375 0 0
0.46875 0.03125 0
0.5 0.03125 0
0.46875 0 0
0.5 0 0
-0.5 -0.03125 0
-0.46875 -0.03125 0
-0.4375 -0.03125 0
-0.5 -0.0625 0
-0.46875 -0.0625 0
-0.4375 -0.0625 0
-0.40625 -0.03125 0
-0.375 -0.03125 0
-0.40625 -0.0625 0
-0.375 -0.0625 0
-0.5 -0.09375 0
-0.46875 -0.09375 0
-0.4375 -0.09375 0
-0.5 -0.125 0
-0.46875 -0.125 0
-0.4375 -0.125 0
-0.40625 -0.09375 0
-0.375 -0.09375 0
-0.40625 -0.125 0
-0.375 -0.125 0
-0.34375 -0.03125 0
-0.3125 -0.03125 0
-0.34375 -0.0625 0
-0.3125 -0.0625 0
-0.28125 -0.03125 0
-0.25 -0.03125 0
-0.28125 -0.0625 0
-0.25 -0.0625 0
-0.34375 -0.09375 0
-0.3125 -0.09375 0
-0.34375 -0.125 0
-0.3125 -0.125 0
-0.28125 -0.09375 0
-0.25 -0.09375 0
-0.28125 -0.125 0
-0.25 -0.125 0
-0.5 -0.15625 0
-0.46875 -0.15625 0
-0.4375 -0.15625 0
-0.5 -0.1875 0
-0.46875 -0.1875 0
-0.4375 -0.1875 0
-0.40625 -0.15625 0
-0.375 -0.15625 0
[...]
POINT_DATA 1089
SCALARS T float
LOOKUP_TABLE default
0
0
0
0
0
0
0
0
0
0
0
0
0
0
0
0
0
0
0
0
0
0
0
0
0
0
0
0
0
0
0
0
0
0
0
0
0
0
0
0
0
0
0
0
0
0
0
0
0
0
0
0
0
0
0
0
0
0
0
0
0
0
0
0
0
0
0
0
0
0
0
0
0
0
0
0
0
0
0
0
0
0
0
0
0
0
0
0
0
0
0
0
0
0
0
0
0
0
0
0
0
0
0
0
0
0
0
0
0
0
0
0
0
0
0
0
0
0
0
0
0
0
0
0
0
0
0
0
0
0
0
0
0
0
0
0
0
0
0
0
0
0
0
0
0
0
0
0
0
0
0
0
0
0
0
0
0
0
0
0
0
0
0
0
0
0
0
0
0
0
0
0
0
0
0
0
0
0
0
0
0
0
0
0
0
0
0
0
0
0
0
0
0
0
0
0
0
0
0
0
0
0
0
0
0
0
0
0
0
0
0
0
0
0
0
0
0.0719568
0
0
0
4.76619e-05
0.0485521
0.363645
0.239792
0.732881
0
0
0
0
0
0
0
0
0
0
0
0
0
0
0
0
0
0
0
0
0
0
0
0
0
0
0
0
0
0
0
0
0.0193264
0.129614
0.325271
0.613602
0.263966
0.293186
0.763966
0.793186
0.799081
0.983988
0.993136
1
1
1
1
1
0.204677
0.0658083
0.704677
0.484259
0.00063906
0
0.178623
0.00953348
1
0.91845
1
1
0.585985
0.167539
0.907098
0.460563
0
0
0
0
0
0
0
0
0
0
0
0
0
0
0
0
0
0
0
0
0
0
0
0
0
0
0
0
0
0
0
0
0
0
0
0
0
0
0
0
0
0
0
0
0
0
0
0.000404291
0
0
0
0
0
0.106498
0
0.319467
0
0
0.0898916
0.267055
0
0
0.347886
0.239075
0.445985
0.767055
0.819467
1
0.847886
0.734886
1
0.995811
0
0
0
0
0
0
0
0
0
0
0
0
0
0
0
0
0
0
0
0
0
0
0
0
0
0
0
0
0
0
0
0
0
0
0
0
0
0
0
0
0
0
0.0687561
0
0
0
0
0
0.384998
0.0704305
0.738302
0.24249
0
0
0
0
0
0
0
0
0
0
0
0
0
0
0
0
0
0
0
0
0
0
0
0
0
0.43215
0
0.343197
0
0
0
0
0
0.128238
0
0.00381839
0.93215
1
0.843197
1
1
1
1
1
0.493779
0.818092
0.119359
0.318092
0.898419
0.788109
0.398419
0.288109
0
0
0
0
0
0
0
0
4.6224e-06
0
0.0534649
0
0
0
0
0
0
0
0
0
0
0
0
0
0
0
0
8.43766e-05
0
0
8.43766e-05
0
0.849162
0.349162
0.760785
0.260785
0
0
0
0
0.425929
0.083688
0.0922461
4.75336e-06
0
0
0
0
0
0
0
0
0
0
0
0
0
0
0
0
0
0
0
0
0
0
0
0
0
0
0
0
0
0
0
0
0
0
0
0
0
0
0
0
0
0
0
0
0
0
0
0
0
0
0
0
0
0
0
0
0
0
0
0
0
0
0
0
0
0
0
0
0
0
0
0
0
0.036717
0
0.125002
0.477909
0.941192
0.625002
1
0
0.189131
0
0.17635
0.689131
1
0.67635
1
0
0
0
0
0
0
0
0
0
0
0
0
0
0
0
0
0
0
0
0
0
0.0924739
0
0.016923
0.586214
0.99374
0.407081
0.890159
0
0
0
0
0.159648
0.608911
0.0132292
0.222847
1
1
1
1
1
1
1
1
1
1
1
1
1
1
1
1
1
1
1
1
0.999097
0.694929
1
0.832598
1
1
1
1
1
0.891342
1
0.878191
1
1
1
1
1
1
1
1
0.949263
1
0.595737
0.869891
1
1
0.983772
0.999235
1
1
1
1
1
0.791296
0.985074
0.61691
1
0.993664
0.94313
0.74858
0.806113
0.330064
0.382059
0.0773747
0
0
0
0
0
0
0
0
0
0
0
0
0
0
0
0
0
0
0
0
0
0
0
0
0
0.0103548
0
0
0
0
0
0
0
0
0
0
0
0
0
0
0
0
0
0
0
0
0
0
0
0
0
0
0
0
0
0
0
0
0
0
0
0
0
0
0
0
0
0
0
0
0
0
0.146474
0.373161
0
0.00326981
0.515345
0.543078
0.0315726
0.0438431
0
0
0
0
0
0
0
0
0.458671
0.254916
0.0155403
0
0.0610203
0
0
0
0
0
0
0
0
0
0
0
0
0
0
0
0
0
0
0
0
0
0
0
0
0
0
0
0
0
0
0
0
0
0
0
0
0
0
0
0
0
0
0
0.195832
0
0.332598
0
0
0
0
0
0.391342
0
0.378191
0
0
0
0
0
0
0.0100376
0
0.0116509
0.0509885
0.0713218
0.234194
0.502914
0
0.0728343
0
0.125845
0.504426
0.931592
0.625845
1
0.291296
0
0.131836
0
0
0
0
0
0.0176155
0
0
0
0
0
0
0
0
0.0547598
0
5.15368e-05
0.411538
0.799712
0.10683
0.299712
0
0
0
0
0
0
0
0
0.0360485
0.00567754
0.488121
0.231736
0
0
0.0239862
0
0.952072
0.591264
1
0.712154
0.139192
0
0.212154
0
0
0
0
0
0
0
0
0
0
0
0
0
0
0
0
0
0.829766
0.490443
0.329766
0.143495
0.103611
0
0.0066627
0
0
0
0
0
0
0
0
0
0
0
0
0
0
0
0
0
0
0
0
0
0
0
0
0
0
0
0
0
0
0
0
0
0
0
0
0
0
0
0
0
0
0
0
0
0
0
0
0
0
0
0
0
0
0
0
0
0
0
0
0
0
0
0
0
0
0
0
0
0
0
0
0
0
0
0
0
0
0
0
0
0
0
0
0
0
0
0
0
0
0
0
0
0
0
0
0
0
0
0
0
0
0
0
0
0
0
0
0
0
0
0
0
0
0
0
0
0
0
0
0
0
0
0
0
0
0
0
0
0
0
0
0
0
0
0
0
0
0
0
0
0
0
0
0
0
0
0
0
0
0
0
0

SCALARS P float
LOOKUP_TABLE default
-0.0086791
-0.00874925
-0.00866036
-0.00873061
-0.00883287
-0.00881561
-0.00868476
-0.00875472
-0.00883728
-0.0089295
-0.00891562
-0.00903861
-0.00903068
-0.00893179
-0.00903744
-0.00867862
-0.00874796
-0.00882988
-0.00866064
-0.00872897
-0.00881075
-0.00892369
-0.00902848
-0.00890535
-0.00901196
-0.00915751
-0.00915835
-0.00928293
-0.00929578
-0.00915143
-0.00927029
-0.00940906
-0.0094367
-0.00952917
-0.00957374
-0.00938853
-0.00949978
-0.00914147
-0.00925908
-0.00912787
-0.00924952
-0.00937591
-0.0094856
-0.00937132
-0.00948661
-0.00863091
-0.00869735
-0.00877915
-0.00858686
-0.00865067
-0.00873274
-0.00887583
-0.00898679
-0.00883274
-0.00895054
-0.00852666
-0.00858668
-0.00866876
-0.00844347
-0.00850013
-0.00858244
-0.0087728
-0.00889936
-0.008691
-0.00882769
-0.00910954
-0.00924061
-0.00908409
-0.00923028
-0.00937411
-0.00950267
-0.00938294
-0.00953369
-0.00904736
-0.00921458
-0.0089934
-0.00918765
-0.00939494
-0.00957883
-0.00940554
-0.00963647
-0.00963471
-0.00969649
-0.00971732
-0.00979505
-0.0095964
-0.00967081
-0.00976883
-0.00985885
-0.00978246
-0.00987824
-0.00971594
-0.00972628
-0.00958058
-0.0096533
-0.00958713
-0.00966447
-0.00969677
-0.00970584
-0.00971077
-0.0097204
-0.00975555
-0.00984988
-0.00968916
-0.00977527
-0.00969956
-0.00963636
-0.00958893
-0.00966298
-0.00946177
-0.00952281
-0.00954082
-0.00941813
-0.00967835
-0.00961452
-0.00969117
-0.00962341
-0.00951823
-0.00939364
-0.00952144
-0.00938911
-0.00961657
-0.00970548
-0.00967046
-0.00977958
-0.00975947
-0.00977172
-0.00984732
-0.00986443
-0.00975114
-0.00989263
-0.00986225
-0.0100541
-0.00998267
-0.0100078
-0.0101793
-0.0102165
-0.00974009
-0.00966569
-0.0098285
-0.00974223
-0.00955489
-0.00941322
-0.00961606
-0.00945716
-0.00996497
-0.00986084
-0.0101608
-0.0100255
-0.00971235
-0.00953324
-0.00983817
-0.00962935
-0.00833341
-0.0083879
-0.00846994
-0.00819177
-0.0082458
-0.00832644
-0.00858206
-0.00872847
-0.00843948
-0.00859257
-0.00802653
-0.00807753
-0.00815163
-0.00784381
-0.0078856
-0.00794428
-0.0082586
-0.0084106
-0.00803338
-0.00816909
-0.00891352
-0.00913997
-0.00879584
-0.00905725
-0.00940667
-0.00970306
-0.0093847
-0.00976999
-0.00862615
-0.00892141
-0.0083812
-0.00869712
-0.00932199
-0.00982604
-0.00917465
-0.00983752
-0.00765467
-0.00767825
-0.00770919
-0.00746289
-0.00746016
-0.00745012
-0.00776346
-0.00785986
-0.00744828
-0.00747334
-0.00729096
-0.00725031
-0.00718388
-0.00714719
-0.00706438
-0.0069357
-0.00710292
-0.00701691
-0.00676336
-0.00654362
-0.0080443
-0.00835641
-0.00757963
-0.0077997
-0.00890507
-0.00976066
-0.00828484
-0.00483889
-0.00696994
-0.0069589
-0.00628716
-0.0059403
-0.00436777
0.013079
0.00717449
0.0340794
-0.0100088
-0.010279
-0.0101958
-0.0105893
-0.0104594
-0.0105135
-0.0108557
-0.0109375
-0.0104301
-0.0110195
-0.0107371
-0.0116699
-0.0114339
-0.0115652
-0.0123271
-0.0125338
-0.0104333
-0.0102424
-0.0108165
-0.010527
-0.00998437
-0.00971648
-0.0101432
-0.00975866
-0.0113673
-0.0109025
-0.0122055
-0.0114344
-0.0103073
-0.00973736
-0.0104869
-0.00966114
-0.00984502
-0.00375024
0.00985572
0.0280242
0.00475218
0.00657243
0.0384391
0.0405666
0.0389518
0.051576
0.0493535
0.0511543
0.0535497
0.0539011
0.0520116
0.0523031
0.000512154
-0.00790968
0.0342175
0.0192668
-0.0106251
-0.00948126
0.000536847
-0.008488
0.0536422
0.0471052
0.0519498
0.0509977
0.0254805
0.00144704
0.0439906
0.0186016
-0.00931661
-0.00936641
-0.00916236
-0.00920453
-0.00927537
-0.00912058
-0.00900582
-0.00904552
-0.00885894
-0.00889886
-0.0089579
-0.00880377
-0.00924659
-0.00908451
-0.00923136
-0.00905409
-0.00890733
-0.00873596
-0.00885164
-0.00864961
-0.00872431
-0.00876849
-0.00861708
-0.00866265
-0.00865719
-0.00854398
-0.00854314
-0.00858497
-0.00850229
-0.0085351
-0.00847414
-0.00844733
-0.00856219
-0.00843282
-0.00842968
-0.00827698
-0.00836813
-0.00836353
-0.00822179
-0.00824961
-0.00924486
-0.00905222
-0.00927136
-0.00905651
-0.00882239
-0.0085613
-0.00880462
-0.00841058
-0.00933992
-0.00913242
-0.00943411
-0.0092791
-0.00892158
0.00431315
-0.00920646
0.0299123
-0.00823167
-0.00801438
0.00235228
0.0229929
-0.00797418
-0.00807955
0.0321811
0.0192229
0.0445865
0.0819489
0.0896434
0.110372
0.0913132
0.078121
0.110627
0.110543
-0.00848843
-0.00850854
-0.00848725
-0.00849677
-0.00845352
-0.00846687
-0.00849818
-0.00849831
-0.00851523
-0.00850917
-0.00848932
-0.00851239
-0.00840201
-0.0084382
-0.00833724
-0.00840543
-0.00847516
-0.00850356
-0.00845894
-0.00849076
-0.0085412
-0.00853016
-0.00857622
-0.00856167
-0.00854258
-0.00857995
-0.00862172
-0.0086047
-0.0086791
-0.00866095
-0.00862679
-0.00868476
-0.00853656
-0.00857448
-0.00852412
-0.00856015
-0.0086211
-0.00867862
-0.00860471
-0.00866064
-0.00827509
-0.00839616
-0.000569403
-0.00840925
-0.00845845
-0.00848421
-0.00847198
-0.0084818
0.0366403
-0.000571837
0.0791858
0.019655
-0.00858853
-0.00851496
-0.00866774
-0.00852401
-0.00851046
-0.00853944
-0.00849275
-0.00850957
-0.00857857
-0.00863091
-0.00853992
-0.00858686
-0.00848046
-0.00847235
-0.00844008
-0.00841043
-0.00848782
-0.00852666
-0.00841187
-0.00844347
-0.00948836
-0.00936308
-0.00943216
-0.00920722
-0.00938078
0.0437163
-0.00910574
0.0333857
-0.00925857
-0.00886756
-0.00901992
-0.00851688
-0.00857957
0.00768667
-0.00812818
-0.00717792
0.103864
0.110851
0.0933956
0.110893
0.11093
0.111406
0.110988
0.111625
0.0517979
0.0897017
0.00729272
0.0310633
0.098793
0.0858973
0.0401777
0.0266564
-0.00865161
-0.00806693
-0.00808621
-0.00753253
-0.00763976
-0.00726945
-0.00714752
-0.00685692
-0.00705507
-0.00671229
-0.00315895
-0.00592155
-0.0064641
-0.00626127
-0.00593769
-0.00588974
-0.00689119
-0.00653004
-0.00659962
-0.00641423
-0.00641271
-0.00676213
-0.00640773
-0.00655325
-0.00608589
-0.00613085
-0.00573744
-0.00586731
-0.00646861
-0.00660915
-0.0063174
-0.00630983
0.0929528
0.0327234
0.0825217
0.0222079
-0.00859652
-0.00844334
-0.00839987
-0.00824993
0.0425869
0.00159858
0.00327142
-0.00762788
-0.00805219
-0.00798461
-0.00769921
-0.00772911
-0.00834352
-0.00830853
-0.00818143
-0.00815631
-0.00830528
-0.00833341
-0.00816151
-0.00819177
-0.00797433
-0.00797453
-0.00775797
-0.00778366
-0.00799342
-0.00802653
-0.00781192
-0.00784381
-0.00713697
-0.00728748
-0.00671586
-0.00689781
-0.00740363
-0.00749134
-0.00708959
-0.00724014
-0.00650816
-0.00663668
-0.00596944
-0.00617123
-0.00688929
-0.00706874
-0.00664569
-0.00690543
-0.00755165
-0.00759784
-0.00734383
-0.00741388
-0.00763033
-0.00765467
-0.00745003
-0.00746289
-0.00719636
-0.0072734
-0.00707739
-0.00716528
-0.00730043
-0.00729096
-0.00718212
-0.00714719
-0.00705405
-0.00692819
-0.00674056
-0.00702602
-0.00686366
-0.00663099
-0.00648364
-0.00614507
-0.00631551
-0.00589623
-0.007075
-0.00688181
-0.00662211
-0.00717401
-0.00697845
-0.0067255
-0.00627609
-0.00581019
-0.00639245
-0.00594839
-0.00569905
-0.00301387
-0.00532614
0.00211875
0.0203091
0.0447754
0.0280374
0.0475187
-0.00516151
0.0055043
-0.00531831
0.00470337
0.0313233
0.047502
0.0306871
0.0476807
-0.00731235
-0.00714161
-0.00693011
-0.00750025
-0.00736306
-0.00721112
-0.00666218
-0.00632955
-0.00703888
-0.00685542
-0.00768706
-0.00759984
-0.00751957
-0.00787316
-0.00783055
-0.00781016
-0.00745344
-0.00742511
-0.0078238
-0.00790094
-0.00587457
-0.000248428
-0.00665668
-0.00539982
0.0260949
0.0479647
0.016287
0.0432497
-0.00749625
-0.0076772
-0.008117
-0.0084815
0.00120154
0.0275409
-0.00838545
0.00392807
0.0490994
0.050321
0.048822
0.0498609
0.0510431
0.0512445
0.0504707
0.0506023
0.0487281
0.0496897
0.0488806
0.0497971
0.0502364
0.0503293
0.0503215
0.0504068
0.0508715
0.0499508
0.0502136
0.0492911
0.0484516
0.0312853
0.047915
0.0380703
0.0499379
0.0490137
0.0500326
0.0491471
0.0476288
0.0407347
0.0478329
0.0402607
0.0493242
0.0501804
0.0500609
0.0508343
0.0507102
0.050819
0.0513835
0.0515258
0.0481527
0.0517963
0.0268697
0.0444355
0.0523635
0.0525716
0.052459
0.0538348
0.0504938
0.0497137
0.0512474
0.0505747
0.0485753
0.036314
0.0486941
0.0271914
0.0523853
0.0514129
0.0497296
0.0362582
0.0389023
0.0103318
0.0127815
-0.00534658
-0.00804415
-0.00803812
-0.00806089
-0.00819446
-0.00821646
-0.00826923
-0.00812235
-0.00824763
-0.00836107
-0.008513
-0.00832316
-0.00836487
-0.00843603
-0.00842927
-0.00848367
-0.00856466
-0.00854257
-0.00869919
-0.0086764
-0.00882867
-0.00848106
-0.00883018
-0.00874909
-0.00908069
-0.00946342
-0.00951197
-0.00957286
-0.0101403
-0.00891579
-0.00920113
-0.00902503
-0.00927133
-0.00957548
-0.0100018
-0.00956901
-0.00989838
-0.00851435
-0.00857676
-0.00866252
-0.00858001
-0.00864678
-0.00873366
-0.00877429
-0.00891779
-0.00884214
-0.00897517
-0.00862822
-0.00869724
-0.00878359
-0.00866095
-0.00873061
-0.00881561
-0.00888785
-0.00901115
-0.00891562
-0.00903068
-0.0090932
-0.00930272
-0.00913145
-0.00931076
-0.00954099
-0.00979528
-0.0095062
-0.00970799
-0.00915143
-0.00930675
-0.00915835
-0.00929578
-0.00947026
-0.00963359
-0.0094367
-0.00957374
-0.00149267
0.0125538
-0.010742
-0.0112676
0.0217402
0.0235462
-0.0100642
-0.00962632
-0.0104405
-0.0109155
-0.0102254
-0.0105435
-0.011311
-0.011499
-0.0107906
-0.0108977
0.0177466
0.00432092
-0.0113284
-0.0117171
-0.00756751
-0.0103006
-0.0109885
-0.0102282
-0.0114193
-0.0110637
-0.0108398
-0.0106133
-0.0105853
-0.0100738
-0.0102946
-0.0099351
-0.0100414
-0.0102668
-0.00989798
-0.0100624
-0.0104342
-0.0105017
-0.0101783
-0.0102214
-0.00978337
-0.00990772
-0.00969649
-0.00979505
-0.0099916
-0.0100201
-0.00985885
-0.00987824
-0.0104562
-0.0102981
-0.0101843
-0.0100689
-0.0100707
-0.00980662
-0.00989889
-0.0096955
-0.00998854
-0.00989876
-0.00984988
-0.00977527
-0.00976471
-0.00960061
-0.00966298
-0.00952281
0.00508881
-0.0050382
0.0124871
-0.00443895
-0.00535982
-0.00549385
-0.00520695
-0.0058573
0.0154844
-0.00424649
0.0147376
-0.0045314
-0.00538125
-0.00651406
-0.00557748
-0.00653091
-0.00541831
-0.00533944
-0.00662119
-0.00739333
-0.00043604
0.00365762
0.0298833
0.079344
-0.00797713
0.00453163
-0.00769417
0.0164087
0.0823707
0.159724
0.107278
0.173558
0.00975575
-0.00556265
0.000293513
-0.00670382
-0.00621689
-0.00677935
-0.00694276
-0.00721019
-0.00717457
-0.00778421
-0.00903796
-0.00849974
-0.00769021
-0.00772234
-0.00820973
-0.00809335
-0.00747428
0.00319399
-0.00756418
-0.00771405
0.0689342
0.139016
0.0129217
0.048515
-0.00783905
-0.00795495
-0.00806964
-0.00808353
-0.00769304
-0.00788828
-0.00793983
-0.00808995
-0.000348735
-0.00491225
0.0786533
0.0337772
-0.00650186
-0.00685211
-0.00267839
-0.00695347
0.163109
0.0976408
0.173513
0.120354
0.0170639
-0.00752826
0.0297581
-0.00780683
-0.00704836
-0.00712649
-0.00711905
-0.00716201
-0.00712085
-0.00705405
-0.00712631
-0.00702602
-0.0074408
-0.00733196
-0.00761605
-0.00746674
-0.00722174
-0.007075
-0.00733247
-0.00717401
0.143686
0.0807462
0.0527758
0.0180151
0.0103086
-0.00783998
-0.00710689
-0.00809842
-0.00838986
-0.00834852
-0.00833447
-0.00828559
-0.00822697
-0.00808233
-0.00824432
-0.00814827
-0.0076893
-0.00757491
-0.00790797
-0.00775871
-0.00745415
-0.00731235
-0.00762918
-0.00750025
-0.00797043
-0.00786867
-0.00806784
-0.00799256
-0.00777651
-0.00768706
-0.00792798
-0.00787316
-0.00943139
-0.00891243
-0.0095841
-0.00913685
-0.0085843
-0.00840552
-0.00882002
-0.00861501
-0.00960785
-0.00924527
-0.00958659
-0.0092898
-0.00896482
-0.00876087
-0.0090446
-0.00885196
-0.00831285
-0.00826442
-0.00848601
-0.008403
-0.00816489
-0.00820633
-0.00832177
-0.00832142
-0.00861731
-0.00851416
-0.00870659
-0.00859661
-0.00843206
-0.00839988
-0.00851373
-0.00846539
-0.00953898
-0.00929495
-0.00948148
-0.00927587
-0.00908197
-0.00890434
-0.00908826
-0.00892482
-0.00942237
-0.00924386
-0.00936641
-0.00920453
-0.00907448
-0.00892188
-0.00904552
-0.00889886
-0.00876245
-0.00865089
-0.00878861
-0.00867909
-0.00856684
-0.008511
-0.0085961
-0.00853858
-0.00879027
-0.00868319
-0.00876849
-0.00866265
-0.00860239
-0.00854702
-0.00858497
-0.0085351
-0.0082962
-0.00827881
-0.00834056
-0.00831507
-0.00826326
-0.00820435
-0.00829849
-0.00826239
-0.00838622
-0.00836227
-0.0084347
-0.00840865
-0.00834568
-0.00832347
-0.00839196
-0.00837883
-0.00815237
-0.00810501
-0.00823112
-0.00820654
-0.0080678
-0.00804415
-0.00819265
-0.00819446
-0.00830654
-0.00829855
-0.00837303
-0.00837777
-0.00830244
-0.00832316
-0.00839513
-0.00842927
-0.00847397
-0.00844821
-0.00850081
-0.00847726
-0.00843346
-0.00842692
-0.0084662
-0.00846542
-0.00851278
-0.00849377
-0.00850854
-0.00849677
-0.00848806
-0.00849294
-0.00849831
-0.00850917
-0.00842954
-0.00844369
-0.00847494
-0.00849626
-0.00847091
-0.00851435
-0.00853052
-0.00858001
-0.00850845
-0.0085354
-0.00853016
-0.00856167
-0.00857476
-0.00862822
-0.0086047
-0.00866036

SCALARS U float
LOOKUP_TABLE default
0.0192157
0.0191202
0.0188944
0.0188115
0.0190256
0.0187198
0.0195504
0.0194204
0.0193021
0.0189391
0.0186234
0.0188713
0.018535
0.0192012
0.0191261
0.0198815
0.0197046
0.0195484
0.020184
0.0199572
0.0197566
0.0194169
0.0193158
0.0195844
0.0194446
0.0188349
0.0184726
0.0188455
0.018459
0.0190852
0.0190887
0.0189206
0.0185238
0.0190801
0.0187032
0.019147
0.0192705
0.0192505
0.0192276
0.0193407
0.0192779
0.0192538
0.0193351
0.019262
0.0192989
0.0204207
0.0201549
0.0199117
0.0205674
0.0202815
0.0199997
0.0196934
0.0195043
0.0197289
0.0194763
0.020622
0.020333
0.0200113
0.0206445
0.0203392
0.0199551
0.019674
0.0193342
0.01952
0.0190526
0.0193484
0.0192322
0.0192499
0.0190601
0.019164
0.0191542
0.018923
0.0188602
0.0190065
0.0187089
0.0185732
0.0181074
0.0184712
0.018336
0.0177057
0.0174484
0.0193375
0.0190291
0.0196979
0.0195231
0.0194644
0.0197265
0.0201405
0.0201611
0.0206157
0.0208651
0.0200391
0.0203677
0.0194733
0.0196644
0.0193911
0.0195368
0.0198929
0.0201316
0.0197222
0.0199222
0.02106
0.0215295
0.0214115
0.0220512
0.0206703
0.0209067
0.0216321
0.0223687
0.0217161
0.0224754
0.0210526
0.0211054
0.020348
0.0205113
0.0201044
0.0202385
0.020603
0.0206231
0.0203043
0.0203013
0.0192117
0.0193411
0.0188945
0.0190456
0.019531
0.0197529
0.0193046
0.0196322
0.0183552
0.0185778
0.0174437
0.0178007
0.0189999
0.0195578
0.0185289
0.0195113
0.0199654
0.0201293
0.0199637
0.0202374
0.020217
0.020225
0.0204103
0.0204776
0.020137
0.0206288
0.0205253
0.0213643
0.0209761
0.0211942
0.0219441
0.0223202
0.0207246
0.0203448
0.0198505
0.0209344
0.0203958
0.019733
0.0192692
0.0186153
0.0189504
0.0180361
0.0212051
0.0204844
0.0196349
0.0214448
0.0206107
0.0196263
0.0186201
0.0173733
0.0184033
0.0167961
0.0179054
0.0171656
0.016978
0.0157849
0.016475
0.0159781
0.0145718
0.0135998
0.0158157
0.0139203
0.0146292
0.0118704
0.011869
0.0101418
0.00888805
0.00655685
0.0216191
0.0208128
0.0198251
0.0217579
0.0211687
0.0203927
0.0185167
0.0166717
0.0192789
0.0176181
0.0218644
0.0217158
0.0214431
0.0220194
0.0224524
0.0229162
0.0209627
0.020202
0.0234646
0.0242169
0.0140563
0.0108165
0.015275
0.0128454
0.00771449
0.0060588
0.0113038
0.0113387
0.0193101
0.0192332
0.025546
0.0279893
0.020258
0.0213125
0.0306568
0.0319046
0.015894
0.0164612
0.0133068
0.0141835
0.0177259
0.0194633
0.0163645
0.0194136
0.009536
0.0109048
0.00604522
0.00824273
0.014456
0.0193999
0.0131382
0.0196228
0.021219
0.0225713
0.0224176
0.0245446
0.0233717
0.0237431
0.0255242
0.0256062
0.0241985
0.0274409
0.0258803
0.0302465
0.0286271
0.0281421
0.0319392
0.0311431
0.00670917
0.00957489
0.012968
0.0154832
0.0144037
0.0203619
0.0184136
0.0213639
0.0224627
0.0236262
0.031998
0.0307213
0.0233386
0.0215038
0.0266344
0.0204811
0.0260573
0.0303539
0.0242238
0.0269047
0.0326273
0.0324931
0.028836
0.0295709
0.0200116
0.0202632
0.0148129
0.0119158
0.0212621
0.0220392
0.0114253
0.0118224
0.0216812
0.0223996
0.0215572
0.0221841
0.0210815
0.0210069
0.0213805
0.0218743
0.0211704
0.0215045
0.0209223
0.020833
0.0205886
0.0205273
0.020246
0.0201648
0.020491
0.020448
0.0200964
0.0199098
0.0209634
0.0211116
0.020794
0.0207314
0.0207924
0.0208653
0.0206442
0.0203757
0.0204746
0.0200446
0.0209927
0.0210467
0.0205212
0.0209023
0.0199485
0.0207856
0.0214602
0.0218517
0.0221449
0.0231221
0.0201609
0.0200242
0.0204309
0.0202406
0.0197348
0.0189741
0.0196322
0.0182818
0.0213128
0.0213622
0.0226278
0.0230289
0.02109
0.0206114
0.0236894
0.0249737
0.0186749
0.0202458
0.0177187
0.0196158
0.0230193
0.0249623
0.0228032
0.0250428
0.0206059
0.0207743
0.0254911
0.0231797
0.0203848
0.020026
0.0190199
0.0157358
0.020249
0.0197378
0.0200096
0.0194818
0.0209104
0.0206657
0.0198083
0.0192967
0.0196453
0.0191701
0.0204274
0.0202056
0.021791
0.0214687
0.0230397
0.0224111
0.0211429
0.020829
0.0218746
0.0214288
0.0195176
0.0190853
0.0194107
0.0190209
0.0200142
0.0198455
0.019312
0.0189594
0.0192157
0.0188879
0.0196918
0.0195504
0.0205504
0.0203023
0.0210556
0.0207282
0.02008
0.0198815
0.0204391
0.020184