# vtk DataFile Version 2.0
Gerris simulation version 1.3.2 (131206-155120)
ASCII
DATASET UNSTRUCTURED_GRID

POINTS 1089 float
-0.5 0.46875 0
-0.46875 0.46875 0
-0.5 0.5 0
-0.46875 0.5 0
-0.4375 0.46875 0
-0.4375 0.5 0
-0.5 0.4375 0
-0.46875 0.4375 0
-0.4375 0.4375 0
-0.40625 0.46875 0
-0.40625 0.5 0
-0.375 0.46875 0
-0.375 0.5 0
-0.40625 0.4375 0
-0.375 0.4375 0
-0.5 0.40625 0
-0.46875 0.40625 0
-0.4375 0.40625 0
-0.5 0.375 0
-0.46875 0.375 0
-0.4375 0.375 0
-0.40625 0.40625 0
-0.375 0.40625 0
-0.40625 0.375 0
-0.375 0.375 0
-0.34375 0.46875 0
-0.34375 0.5 0
-0.3125 0.46875 0
-0.3125 0.5 0
-0.34375 0.4375 0
-0.3125 0.4375 0
-0.28125 0.46875 0
-0.28125 0.5 0
-0.25 0.46875 0
-0.25 0.5 0
-0.28125 0.4375 0
-0.25 0.4375 0
-0.34375 0.40625 0
-0.3125 0.40625 0
-0.34375 0.375 0
-0.3125 0.375 0
-0.28125 0.40625 0
-0.25 0.40625 0
-0.28125 0.375 0
-0.25 0.375 0
-0.5 0.34375 0
-0.46875 0.34375 0
-0.4375 0.34375 0
-0.5 0.3125 0
-0.46875 0.3125 0
-0.4375 0.3125 0
-0.40625 0.34375 0
-0.375 0.34375 0
-0.40625 0.3125 0
-0.375 0.3125 0
-0.5 0.28125 0
-0.46875 0.28125 0
-0.4375 0.28125 0
-0.5 0.25 0
-0.46875 0.25 0
-0.4375 0.25 0
-0.40625 0.28125 0
-0.375 0.28125 0
-0.40625 0.25 0
-0.375 0.25 0
-0.34375 0.34375 0
-0.3125 0.34375 0
-0.34375 0.3125 0
-0.3125 0.3125 0
-0.28125 0.34375 0
-0.25 0.34375 0
-0.28125 0.3125 0
-0.25 0.3125 0
-0.34375 0.28125 0
-0.3125 0.28125 0
-0.34375 0.25 0
-0.3125 0.25 0
-0.28125 0.28125 0
-0.25 0.28125 0
-0.28125 0.25 0
-0.25 0.25 0
-0.21875 0.46875 0
-0.21875 0.5 0
-0.1875 0.46875 0
-0.1875 0.5 0
-0.21875 0.4375 0
-0.1875 0.4375 0
-0.15625 0.46875 0
-0.15625 0.5 0
-0.125 0.46875 0
-0.125 0.5 0
-0.15625 0.4375 0
-0.125 0.4375 0
-0.21875 0.40625 0
-0.1875 0.40625 0
-0.21875 0.375 0
-0.1875 0.375 0
-0.15625 0.40625 0
-0.125 0.40625 0
-0.15625 0.375 0
-0.125 0.375 0
-0.09375 0.46875 0
-0.09375 0.5 0
-0.0625 0.46875 0
-0.0625 0.5 0
-0.09375 0.4375 0
-0.0625 0.4375 0
-0.03125 0.46875 0
-0.03125 0.5 0
0 0.46875 0
0 0.5 0
-0.03125 0.4375 0
0 0.4375 0
-0.09375 0.40625 0
-0.0625 0.40625 0
-0.09375 0.375 0
-0.0625 0.375 0
-0.03125 0.40625 0
0 0.40625 0
-0.03125 0.375 0
0 0.375 0
-0.21875 0.34375 0
-0.1875 0.34375 0
-0.21875 0.3125 0
-0.1875 0.3125 0
-0.15625 0.34375 0
-0.125 0.34375 0
-0.15625 0.3125 0
-0.125 0.3125 0
-0.21875 0.28125 0
-0.1875 0.28125 0
-0.21875 0.25 0
-0.1875 0.25 0
-0.15625 0.28125 0
-0.125 0.28125 0
-0.15625 0.25 0
-0.125 0.25 0
-0.09375 0.34375 0
-0.0625 0.34375 0
-0.09375 0.3125 0
-0.0625 0.3125 0
-0.03125 0.34375 0
0 0.34375 0
-0.03125 0.3125 0
0 0.3125 0
-0.09375 0.28125 0
-0.0625 0.28125 0
-0.09375 0.25 0
-0.0625 0.25 0
-0.03125 0.28125 0
0 0.28125 0
-0.03125 0.25 0
0 0.25 0
-0.5 0.21875 0
-0.46875 0.21875 0
-0.4375 0.21875 0
-0.5 0.1875 0
-0.46875 0.1875 0
-0.4375 0.1875 0
-0.40625 0.21875 0
-0.375 0.21875 0
-0.40625 0.1875 0
-0.375 0.1875 0
-0.5 0.15625 0
-0.46875 0.15625 0
-0.4375 0.15625 0
-0.5 0.125 0
-0.46875 0.125 0
-0.4375 0.125 0
-0.40625 0.15625 0
-0.375 0.15625 0
-0.40625 0.125 0
-0.375 0.125 0
-0.34375 0.21875 0
-0.3125 0.21875 0
-0.34375 0.1875 0
-0.3125 0.1875 0
-0.28125 0.21875 0
-0.25 0.21875 0
-0.28125 0.1875 0
-0.25 0.1875 0
-0.34375 0.15625 0
-0.3125 0.15625 0
-0.34375 0.125 0
-0.3125 0.125 0
-0.28125 0.15625 0
-0.25 0.15625 0
-0.28125 0.125 0
-0.25 0.125 0
-0.5 0.09375 0
-0.46875 0.09375 0
-0.4375 0.09375 0
-0.5 0.0625 0
-0.46875 0.0625 0
-0.4375 0.0625 0
-0.40625 0.09375 0
-0.375 0.09375 0
-0.40625 0.0625 0
-0.375 0.0625 0
-0.5 0.03125 0
-0.46875 0.03125 0
-0.4375 0.03125 0
-0.5 0 0
-0.46875 0 0
-0.4375 0 0
-0.40625 0.03125 0
-0.375 0.03125 0
-0.40625 0 0
-0.375 0 0
-0.34375 0.09375 0
-0.3125 0.09375 0
-0.34375 0.0625 0
-0.3125 0.0625 0
-0.28125 0.09375 0
-0.25 0.09375 0
-0.28125 0.0625 0
-0.25 0.0625 0
-0.34375 0.03125 0
-0.3125 0.03125 0
-0.34375 0 0
-0.3125 0 0
-0.28125 0.03125 0
-0.25 0.03125 0
-0.28125 0 0
-0.25 0 0
-0.21875 0.21875 0
-0.1875 0.21875 0
-0.21875 0.1875 0
-0.1875 0.1875 0
-0.15625 0.21875 0
-0.125 0.21875 0
-0.15625 0.1875 0
-0.125 0.1875 0
-0.21875 0.15625 0
-0.1875 0.15625 0
-0.21875 0.125 0
-0.1875 0.125 0
-0.15625 0.15625 0
-0.125 0.15625 0
-0.15625 0.125 0
-0.125 0.125 0
-0.09375 0.21875 0
-0.0625 0.21875 0
-0.09375 0.1875 0
-0.0625 0.1875 0
-0.03125 0.21875 0
0 0.21875 0
-0.03125 0.1875 0
0 0.1875 0
-0.09375 0.15625 0
-0.0625 0.15625 0
-0.09375 0.125 0
-0.0625 0.125 0
-0.03125 0.15625 0
0 0.15625 0
-0.03125 0.125 0
0 0.125 0
-0.21875 0.09375 0
-0.1875 0.09375 0
-0.21875 0.0625 0
-0.1875 0.0625 0
-0.15625 0.09375 0
-0.125 0.09375 0
-0.15625 0.0625 0
-0.125 0.0625 0
-0.21875 0.03125 0
-0.1875 0.03125 0
-0.21875 0 0
-0.1875 0 0
-0.15625 0.03125 0
-0.125 0.03125 0
-0.15625 0 0
-0.125 0 0
-0.09375 0.09375 0
-0.0625 0.09375 0
-0.09375 0.0625 0
-0.0625 0.0625 0
-0.03125 0.09375 0
0 0.09375 0
-0.03125 0.0625 0
0 0.0625 0
-0.09375 0.03125 0
-0.0625 0.03125 0
-0.09375 0 0
-0.0625 0 0
-0.03125 0.03125 0
0 0.03125 0
-0.03125 0 0
0 0 0
0.03125 0.46875 0
0.03125 0.5 0
0.0625 0.46875 0
0.0625 0.5 0
0.03125 0.4375 0
0.0625 0.4375 0
0.09375 0.46875 0
0.09375 0.5 0
0.125 0.46875 0
0.125 0.5 0
0.09375 0.4375 0
0.125 0.4375 0
0.03125 0.40625 0
0.0625 0.40625 0
0.03125 0.375 0
0.0625 0.375 0
0.09375 0.40625 0
0.125 0.40625 0
0.09375 0.375 0
0.125 0.375 0
0.15625 0.46875 0
0.15625 0.5 0
0.1875 0.46875 0
0.1875 0.5 0
0.15625 0.4375 0
0.1875 0.4375 0
0.21875 0.46875 0
0.21875 0.5 0
0.25 0.46875 0
0.25 0.5 0
0.21875 0.4375 0
0.25 0.4375 0
0.15625 0.40625 0
0.1875 0.40625 0
0.15625 0.375 0
0.1875 0.375 0
0.21875 0.40625 0
0.25 0.40625 0
0.21875 0.375 0
0.25 0.375 0
0.03125 0.34375 0
0.0625 0.34375 0
0.03125 0.3125 0
0.0625 0.3125 0
0.09375 0.34375 0
0.125 0.34375 0
0.09375 0.3125 0
0.125 0.3125 0
0.03125 0.28125 0
0.0625 0.28125 0
0.03125 0.25 0
0.0625 0.25 0
0.09375 0.28125 0
0.125 0.28125 0
0.09375 0.25 0
0.125 0.25 0
0.15625 0.34375 0
0.1875 0.34375 0
0.15625 0.3125 0
0.1875 0.3125 0
0.21875 0.34375 0
0.25 0.34375 0
0.21875 0.3125 0
0.25 0.3125 0
0.15625 0.28125 0
0.1875 0.28125 0
0.15625 0.25 0
0.1875 0.25 0
0.21875 0.28125 0
0.25 0.28125 0
0.21875 0.25 0
0.25 0.25 0
0.28125 0.46875 0
0.28125 0.5 0
0.3125 0.46875 0
0.3125 0.5 0
0.28125 0.4375 0
0.3125 0.4375 0
0.34375 0.46875 0
0.34375 0.5 0
0.375 0.46875 0
0.375 0.5 0
0.34375 0.4375 0
0.375 0.4375 0
0.28125 0.40625 0
0.3125 0.40625 0
0.28125 0.375 0
0.3125 0.375 0
0.34375 0.40625 0
0.375 0.40625 0
0.34375 0.375 0
0.375 0.375 0
0.40625 0.46875 0
0.40625 0.5 0
0.4375 0.46875 0
0.4375 0.5 0
0.40625 0.4375 0
0.4375 0.4375 0
0.46875 0.46875 0
0.46875 0.5 0
0.5 0.46875 0
0.5 0.5 0
0.46875 0.4375 0
0.5 0.4375 0
0.40625 0.40625 0
0.4375 0.40625 0
0.40625 0.375 0
0.4375 0.375 0
0.46875 0.40625 0
0.5 0.40625 0
0.46875 0.375 0
0.5 0.375 0
0.28125 0.34375 0
0.3125 0.34375 0
0.28125 0.3125 0
0.3125 0.3125 0
0.34375 0.34375 0
0.375 0.34375 0
0.34375 0.3125 0
0.375 0.3125 0
0.28125 0.28125 0
0.3125 0.28125 0
0.28125 0.25 0
0.3125 0.25 0
0.34375 0.28125 0
0.375 0.28125 0
0.34375 0.25 0
0.375 0.25 0
0.40625 0.34375 0
0.4375 0.34375 0
0.40625 0.3125 0
0.4375 0.3125 0
0.46875 0.34375 0
0.5 0.34375 0
0.46875 0.3125 0
0.5 0.3125 0
0.40625 0.28125 0
0.4375 0.28125 0
0.40625 0.25 0
0.4375 0.25 0
0.46875 0.28125 0
0.5 0.28125 0
0.46875 0.25 0
0.5 0.25 0
0.03125 0.21875 0
0.0625 0.21875 0
0.03125 0.1875 0
0.0625 0.1875 0
0.09375 0.21875 0
0.125 0.21875 0
0.09375 0.1875 0
0.125 0.1875 0
0.03125 0.15625 0
0.0625 0.15625 0
0.03125 0.125 0
0.0625 0.125 0
0.09375 0.15625 0
0.125 0.15625 0
0.09375 0.125 0
0.125 0.125 0
0.15625 0.21875 0
0.1875 0.21875 0
0.15625 0.1875 0
0.1875 0.1875 0
0.21875 0.21875 0
0.25 0.21875 0
0.21875 0.1875 0
0.25 0.1875 0
0.15625 0.15625 0
0.1875 0.15625 0
0.15625 0.125 0
0.1875 0.125 0
0.21875 0.15625 0
0.25 0.15625 0
0.21875 0.125 0
0.25 0.125 0
0.03125 0.09375 0
0.0625 0.09375 0
0.03125 0.0625 0
0.0625 0.0625 0
0.09375 0.09375 0
0.125 0.09375 0
0.09375 0.0625 0
0.125 0.0625 0
0.03125 0.03125 0
0.0625 0.03125 0
0.03125 0 0
0.0625 0 0
0.09375 0.03125 0
0.125 0.03125 0
0.09375 0 0
0.125 0 0
0.15625 0.09375 0
0.1875 0.09375 0
0.15625 0.0625 0
0.1875 0.0625 0
0.21875 0.09375 0
0.25 0.09375 0
0.21875 0.0625 0
0.25 0.0625 0
0.15625 0.03125 0
0.1875 0.03125 0
0.15625 0 0
0.1875 0 0
0.21875 0.03125 0
0.25 0.03125 0
0.21875 0 0
0.25 0 0
0.28125 0.21875 0
0.3125 0.21875 0
0.28125 0.1875 0
0.3125 0.1875 0
0.34375 0.21875 0
0.375 0.21875 0
0.34375 0.1875 0
0.375 0.1875 0
0.28125 0.15625 0
0.3125 0.15625 0
0.28125 0.125 0
0.3125 0.125 0
0.34375 0.15625 0
0.375 0.15625 0
0.34375 0.125 0
0.375 0.125 0
0.40625 0.21875 0
0.4375 0.21875 0
0.40625 0.1875 0
0.4375 0.1875 0
0.46875 0.21875 0
0.5 0.21875 0
0.46875 0.1875 0
0.5 0.1875 0
0.40625 0.15625 0
0.4375 0.15625 0
0.40625 0.125 0
0.4375 0.125 0
0.46875 0.15625 0
0.5 0.15625 0
0.46875 0.125 0
0.5 0.125 0
0.28125 0.09375 0
0.3125 0.09375 0
0.28125 0.0625 0
0.3125 0.0625 0
0.34375 0.09375 0
0.375 0.09375 0
0.34375 0.0625 0
0.375 0.0625 0
0.28125 0.03125 0
0.3125 0.03125 0
0.28125 0 0
0.3125 0 0
0.34375 0.03125 0
0.375 0.03125 0
0.34375 0 0
0.375 0 0
0.40625 0.09375 0
0.4375 0.09375 0
0.40625 0.0625 0
0.4375 0.0625 0
0.46875 0.09375 0
0.5 0.09375 0
0.46875 0.0625 0
0.5 0.0625 0
0.40625 0.03125 0
0.4375 0.03125 0
0.40625 0 0
0.4375 0 0
0.46875 0.03125 0
0.5 0.03125 0
0.46875 0 0
0.5 0 0
-0.5 -0.03125 0
-0.46875 -0.03125 0
-0.4375 -0.03125 0
-0.5 -0.0625 0
-0.46875 -0.0625 0
-0.4375 -0.0625 0
-0.40625 -0.03125 0
-0.375 -0.03125 0
-0.40625 -0.0625 0
-0.375 -0.0625 0
-0.5 -0.09375 0
-0.46875 -0.09375 0
-0.4375 -0.09375 0
-0.5 -0.125 0
-0.46875 -0.125 0
-0.4375 -0.125 0
-0.40625 -0.09375 0
-0.375 -0.09375 0
-0.40625 -0.125 0
-0.375 -0.125 0
-0.34375 -0.03125 0
-0.3125 -0.03125 0
-0.34375 -0.0625 0
-0.3125 -0.0625 0
-0.28125 -0.03125 0
-0.25 -0.03125 0
-0.28125 -0.0625 0
-0.25 -0.0625 0
-0.34375 -0.09375 0
-0.3125 -0.09375 0
-0.34375 -0.125 0
-0.3125 -0.125 0
-0.28125 -0.09375 0
-0.25 -0.09375 0
-0.28125 -0.125 0
-0.25 -0.125 0
-0.5 -0.15625 0
-0.46875 -0.15625 0
-0.4375 -0.15625 0
-0.5 -0.1875 0
-0.46875 -0.1875 0
-0.4375 -0.1875 0
-0.40625 -0.15625 0
-0.375 -0.15625 0
[...]
POINT_DATA 1089
SCALARS T float
LOOKUP_TABLE default
0
0
0
0
0
0
0
0
0
0
0
0
0
0
0
0
0
0
0
0
0
0
0
0
0
0
0
0
0
0
0
0
0
0
0
0
0
0
0
0
0
0
0
0
0
0
0
0
0
0
0
0
0
0
0
0
0
0
0
0
0
0
0
0
0
0
0
0
0
0
0
0
0
0
0
0
0
0
0
0
0
0
0
0
0
0
0
0
0
0
0
0
0
0
0
0
0
0
0
0
0
0
0
0
0
0
0
0
0
0
0
0
0
0
0
0
0
0
0
0
0
0
0
0
0
0
0
0
0
0
0
0
0
0
0
0
0
0
0
0
0
0
0
0
0
0
0
0
0
0
0
0
0
0
0
0
0
0
0
0
0
0
0
0
0
0
0
0
0
0
0
0
0
0
0
0
0
0
0
0
0
0
0
0
0
0
0
0
0
0
0
0
0
0
0
0
0
0
0
0
0
0
0
0
0
0
0
0
0
0
0
0
0
0
0.000227236
0.0809843
0.292238
0
0.107588
0.0472989
0.400812
0.438355
0.791793
0.853295
0.999782
0
0
0
0
0
0
0
0
0
0
0
0
0
0
0
0
0
0
0
0
0
0
0
0
0
0
0
0
0
0
0
0
0.0139478
0.018764
0.474975
0.509253
0.00504337
0
0.397611
0.169346
0.961027
0.990489
1
1
0.892567
0.617825
1
0.948479
0
0
0.0172672
0
0
0
0
0
0.227197
0.0114505
0.594459
0.14598
0
0
0
0
0
0
0
0
0
0
0
0
0
0
0
0
0
0
0
0
0
0
0
0
0
0
0
0
0
0
0
0
0
0
0
0
0
0
0
0
0
0
0
0
0
0
0
0
0
0
0
0
0
0
0
0.0367598
0.0389788
0.173662
0.311658
0.659582
0
0
0
0
0
0
0
0
0.270209
0.183298
0.770209
0.669363
0.0477732
0
0.336257
0.0524183
0
0
0
0
0
0
0
0
0
0
0
0
0
0
0
0
0
0
0
0
0
0
0
0
0
0
0
0
0
0
0
0
0
0
0
0
0
0
0
0
0
0
0
0
0
0
0
0
0
0
0
0
0
0
0
0
0
0
0
0
0
0
0
0
0
0
0
0
0
0
0
0
0
0.177553
0
0.305802
0.663473
0.98592
0.805802
1
0
0.269925
0
0.110077
0.769925
1
0.526053
0.915976
1
0.986065
1
1
0.700826
0.214761
0.85259
0.35259
1
1
1
0.941543
0.825472
0.325472
0.597775
0.156232
0
0.00516073
0
0
0.171137
0.447331
9.05629e-07
0.0313551
0
0
0
0
0
0
0.00171545
0.0164832
0.571066
0.482805
0.0710661
0.0412618
0.214099
0.0210067
0.00154989
0
0
0
0.0162409
0.00147309
0
0
0
0
0
0
0
0
0
0
0
0
0
0
0
0
0
0
0
0
0
0
0
0
0
0
0
0
0
0
0
0
0
0
0
0
0
0
0
0
0
0
0
0
0
0
0
0
0
0
0
0
0
0
0
0
0
0
0
0
0
0
0
0
0
0
0
0
0
0
0
0
0
0
0
0
0
0.0148054
0
0
0
0
0
0
0
0.0751846
0
0.131555
0.218902
0.714826
0.432219
0.917413
0.995925
1
1
1
0.570995
0.995811
0.631555
1
1
1
1
1
0
0
0
0
0
0
0
0.115626
0
0.047333
0
0
0
0
0
0
0
0.00288211
0
0
0.615626
1
0.523299
0.975966
1
1
1
1
0.344336
0.841454
0.121102
0.560274
1
1
0.939172
1
1
1
1
1
1
1
1
1
1
1
1
1
1
1
1
1
0.875069
0.391088
0.990539
0.591644
0.0160192
0
0.101105
0
1
0.706956
1
0.744274
0.206956
0
0.244274
0
1
1
1
1
1
1
1
1
1
1
1
1
1
1
1
0.978573
1
0.71413
0.998834
0.619404
0.21413
0
0.12057
0
0.918533
0.447376
0.678802
0.200228
0.0288429
0
0
0
0
0
0
0
0
0
0
0
0
0
0
0
0
0
0
0
0
0
0
0
0.00561357
0.21249
0
0.0177046
0.62761
0.920734
0.188491
0.464468
0
0
0
0
5.29315e-05
0.0437344
0
0
0
0
0
0
0
0
0
0
0
0
0
0
0
0
0
0
0
0
0
0
0
0
0
0
0
0
0
0
0
0
0
0
0
0
0
0
1
1
0.635463
0.661298
0.965856
0.74931
0.542157
0.27752
0.135463
0.161298
0
0
0.0763007
0.00678403
0
0
0.313983
0.0305296
0.0548803
0
0
0
0
0
0
0
0
0
0
0
0
0
0
0
0
0
0
0
0
0
0
0
0
0
0
0
0
0
0
0
0
0
0
0
0
0
0
0
0
0
0
0
0
0
0
0.0213538
0
0.121507
0.222506
0.46592
0.570944
0.949437
0
0.172661
0
0.0729896
0.672661
1
0.436792
0.828371
0.445705
0.1979
0.929464
0.537869
0.0169627
0
0.108405
0
1
0.671828
0.835579
0.451423
0.171828
0
0.0804113
0
0
0.000481899
0
0
0.114285
0.328371
0
0
0
0
0
0
0
0
0
0
0.373079
0.158537
0.0374998
0.0374998
2.59121e-05
0
0
0
0
0
0
0
0
0
0
0
0
0
0
0
0
0
0
0
0
0
0
0
0
0
0
0
0
0
0
0
0
0
0
0
0
0
0
0
0
0
0
0
0
0
0
0
0
0
0
0
0
0
0
0
0
0
0
0
0
0
0
0
0
0
0
0
0
0
0
0
0
0
0
0
0
0
0
0
0
0
0
0
0
0
0
0
0
0
0
0
0
0
0
0
0
0
0
0
0
0
0
0
0
0
0
0
0
0
0
0
0
0
0
0
0
0
0
0
0
0
0
0
0
0
0
0
0
0
0
0
0
0
0
0
0
0
0
0
0
0
0
0
0
0
0
0
0
0
0
0
0
0
0
0
0
0
0
0
0
0
0
0
0
0
0
0
0
0
0
0
0
0
0
0
0
0
0
0
0
0
0
0
0
0
0
0
0
0
0
0
0
0
0
0
0
0
0
0
0
0
0
0

SCALARS P float
LOOKUP_TABLE default
-0.0107235
-0.0109115
-0.0105934
-0.0107881
-0.0111307
-0.0110193
-0.0108234
-0.0110035
-0.0112124
-0.0113786
-0.0112853
-0.0116514
-0.0115868
-0.0114459
-0.0116978
-0.0108916
-0.0110668
-0.0112695
-0.0109277
-0.0111022
-0.011304
-0.0114947
-0.0117349
-0.0115282
-0.0117664
-0.0119419
-0.0119203
-0.0122371
-0.0122741
-0.011959
-0.0122162
-0.0125183
-0.0126303
-0.0127518
-0.0129396
-0.0124521
-0.0126423
-0.0119801
-0.0122171
-0.0120087
-0.0122413
-0.0124297
-0.0125986
-0.0124483
-0.0126116
-0.0109303
-0.0111094
-0.0113164
-0.0108994
-0.0110877
-0.0113058
-0.0115475
-0.0117942
-0.0115513
-0.0118166
-0.0108344
-0.0110354
-0.0112689
-0.0107359
-0.0109503
-0.0112005
-0.0115353
-0.0118278
-0.0114907
-0.0118173
-0.0120462
-0.0122891
-0.0120908
-0.0123582
-0.0125055
-0.0126766
-0.0125995
-0.012792
-0.0121361
-0.0124434
-0.0121715
-0.0125371
-0.0127279
-0.0129596
-0.0128896
-0.0131858
-0.0128998
-0.0131392
-0.0129356
-0.0131839
-0.0127624
-0.0127958
-0.0128519
-0.013059
-0.0126656
-0.0127911
-0.0127389
-0.0126042
-0.0127056
-0.0127394
-0.0127158
-0.0127513
-0.0126986
-0.0125937
-0.0127177
-0.012625
-0.0124137
-0.0124413
-0.0121349
-0.0120668
-0.0124168
-0.0122056
-0.0118567
-0.0117005
-0.0116009
-0.0113666
-0.0119952
-0.0118056
-0.0124446
-0.0122763
-0.0124923
-0.0123445
-0.0121143
-0.0119779
-0.0122112
-0.012115
-0.0127858
-0.012823
-0.0129152
-0.012955
-0.0127877
-0.0126898
-0.0129091
-0.0127877
-0.0131095
-0.0131549
-0.0133817
-0.0134394
-0.0130899
-0.0129251
-0.0133458
-0.0131114
-0.0125507
-0.0123969
-0.0126156
-0.0124224
-0.0122682
-0.0121911
-0.0122603
-0.012156
-0.0126924
-0.0124292
-0.0127777
-0.0123875
-0.0121943
-0.0120197
-0.0119774
-0.0115668
-0.0106066
-0.010829
-0.0110916
-0.01045
-0.0106665
-0.0109305
-0.0114043
-0.0117692
-0.0112586
-0.0116627
-0.0102637
-0.0104545
-0.0107026
-0.010041
-0.0101825
-0.0103915
-0.0110327
-0.0114714
-0.010702
-0.0111631
-0.0121817
-0.0126275
-0.0121452
-0.012696
-0.0130811
-0.0134801
-0.0133005
-0.013884
-0.0120316
-0.0127237
-0.0118069
-0.0127087
-0.0135904
-0.0145264
-0.0140114
-0.0155717
-0.00977465
-0.00984293
-0.00998464
-0.00945791
-0.00942896
-0.00946466
-0.010242
-0.0106987
-0.00961604
-0.0100056
-0.00910365
-0.00896054
-0.00885357
-0.00873317
-0.00845972
-0.00817006
-0.00882846
-0.00897942
-0.00787607
-0.00755796
-0.0114242
-0.0126362
-0.0107102
-0.0121032
-0.014666
-0.0173043
-0.00961101
0.00267395
-0.0092467
-0.00449789
-0.00474183
0.0125082
0.013431
0.0369925
0.0371705
0.04872
-0.0137588
-0.0138494
-0.0143285
-0.0144875
-0.0137196
-0.0133836
-0.0143044
-0.0138165
-0.015266
-0.0155323
-0.016838
-0.0172756
-0.0152406
-0.0144776
-0.0167562
-0.0154488
-0.0129066
-0.0123484
-0.0131551
-0.0124407
-0.0116985
-0.0109214
-0.0116255
-0.010652
-0.0135364
-0.0126727
-0.0140109
-0.0129407
-0.0118299
-0.0110081
-0.0121213
-0.0115486
-0.018909
-0.019409
0.0156872
0.0182638
-0.0189977
-0.0168586
0.00932052
-0.0059621
0.0520625
0.0552221
0.051085
0.0517441
0.0455009
0.0238289
0.0503356
0.0436897
-0.0145056
-0.0130726
-0.0135922
-0.012752
-0.0122453
-0.0118327
-0.0119976
-0.0117536
-3.1993e-05
-0.0108798
0.0214624
-0.0022316
-0.0111738
-0.0112816
-0.0095217
-0.0102941
-0.0113778
-0.0110744
-0.0111935
-0.010831
-0.0116487
-0.0115281
-0.0110415
-0.0106312
-0.0109165
-0.010474
-0.0114339
-0.0113535
-0.0118852
-0.011836
-0.01209
-0.0121316
-0.0118215
-0.0118198
-0.0122505
-0.0123816
-0.0107933
-0.0103454
-0.0106674
-0.0102397
-0.0112353
-0.011088
-0.0105405
-0.0101551
-0.0104237
-0.0100904
-0.0109115
-0.0107299
-0.0117124
-0.0115384
-0.0122596
-0.012044
-0.0112884
-0.0110096
-0.0116831
-0.0112481
-0.0122298
-0.0123737
-0.0122325
-0.0125058
-0.0127075
-0.013088
-0.0133486
-0.0142896
-0.0121032
-0.0125787
-0.0112728
-0.00747098
-0.00923112
0.00718453
0.0241667
0.0671655
-0.0129217
-0.0126512
-0.0139882
-0.0135645
-0.0121321
-0.01144
-0.0126658
-0.0114536
0.0205671
0.00936322
0.0823902
0.0687555
-0.00725656
-0.0116195
0.0271944
-0.00532166
-0.0103398
-0.0100551
-0.0102875
-0.0100458
-0.0105931
-0.010494
-0.010274
-0.0100663
-0.0102957
-0.0101141
-0.0104467
-0.0104427
-0.0108091
-0.0106552
-0.0109732
-0.0107571
-0.0105746
-0.0105469
-0.010648
-0.010601
-0.0103529
-0.0101901
-0.0104436
-0.0102942
-0.010482
-0.0105601
-0.0105673
-0.0104274
-0.0107235
-0.0105897
-0.0106746
-0.0108234
-0.0105713
-0.0106397
-0.0106161
-0.0106793
-0.0107477
-0.0108916
-0.0107849
-0.0109277
-0.0110758
-0.0107844
-0.0110035
-0.0106695
-0.0106534
-0.0105945
-0.0105565
-0.0105127
-0.010863
-0.0104724
-0.0099608
-0.00990996
-0.0103823
-0.0103686
-0.0100055
-0.0101197
-0.0106087
-0.0106742
-0.0105443
-0.0106232
-0.0107833
-0.0109303
-0.0107432
-0.0108994
-0.0104286
-0.0105292
-0.0102514
-0.0103927
-0.0106652
-0.0108344
-0.0105518
-0.0107359
-0.00990755
0.0096434
-0.00924229
0.0245737
0.0658204
0.105814
0.0813379
0.106383
-0.00994033
0.0206293
-0.0110672
0.00172428
0.0778289
0.106336
0.0508759
0.0979642
0.10847
0.105888
0.107643
0.10684
0.0692832
0.0134586
0.0856286
0.0291114
0.10771
0.107084
0.108812
0.10122
0.0830563
0.0262118
0.0577976
0.00652603
-0.0117565
-0.0114254
-0.011997
-0.0125407
0.00830622
0.0423193
-0.0134767
-0.00942452
-0.0118632
-0.0126501
-0.0113706
-0.0125881
-0.0136563
-0.01436
-0.0136509
-0.0113218
0.0578747
0.0455793
-0.00415798
-0.00901541
0.0120867
-0.00954558
-0.0135412
-0.0120129
-0.0142211
-0.0138074
-0.0105616
-0.0128951
-0.0128678
-0.011758
-0.012596
-0.0117195
-0.00859592
-0.0091879
-0.00773055
-0.00875631
-0.00956279
-0.00984215
-0.00930793
-0.00966523
-0.00799166
-0.008866
-0.00941237
-0.00956204
-0.00933413
-0.00963144
-0.00965742
-0.0097462
-0.0100546
-0.0102361
-0.00990515
-0.0100927
-0.0104135
-0.0106066
-0.0102652
-0.01045
-0.0098246
-0.00997297
-0.00981188
-0.00987364
-0.0101104
-0.0102637
-0.00994463
-0.010041
-0.0106282
-0.0102228
-0.0110458
-0.0105075
-0.0100039
-0.00988445
-0.0101668
-0.00993087
-0.0110671
-0.0105598
-0.0110915
-0.0105704
-0.0101823
-0.0098885
-0.0101504
-0.00980784
-0.0098103
-0.00976887
-0.00975853
-0.00962836
-0.00975553
-0.00977465
-0.00952921
-0.00945791
-0.00965027
-0.00944842
-0.00951484
-0.00925067
-0.00926932
-0.00910365
-0.00899651
-0.00873317
-0.00838866
-0.00801259
-0.00757373
-0.00813393
-0.00771658
-0.0072346
-0.00704059
-0.00628851
-0.00666947
-0.00495675
-0.00797341
-0.00757196
-0.00713883
-0.00790294
-0.00753251
-0.00715233
-0.00670534
-0.00187087
-0.00679756
0.000871788
0.00472354
0.0282694
0.015071
0.0380254
0.0433824
0.0467314
0.0437912
0.0461526
0.0222173
0.0425936
0.0255953
0.0434645
0.0444684
0.046123
0.0448881
0.0462502
-0.00792694
-0.0076025
-0.00726976
-0.00805334
-0.00781654
-0.00759838
-0.00693995
-7.63902e-05
-0.00742568
-0.00439924
-0.00825525
-0.00809833
-0.00796914
-0.00850943
-0.00842763
-0.00835952
-0.00789668
-0.00759428
-0.0083091
-0.00827412
0.0248512
0.0436635
0.0198895
0.0426804
0.0450173
0.0464022
0.0450233
0.0466531
0.0102903
0.0356582
-0.00167864
0.0207393
0.0447042
0.0470338
0.0414719
0.0479067
0.0486769
0.0491687
0.0475852
0.0478908
0.047895
0.0451642
0.0468861
0.0448699
0.0471554
0.0473186
0.0470842
0.0471477
0.0464817
0.0448751
0.0463269
0.0447453
0.0356533
0.0109517
0.0417734
0.021432
-0.00732695
-0.00934628
-0.00257899
-0.00875387
0.0428815
0.0279052
0.0427482
0.0299279
0.00344542
-0.00757021
0.00636693
-0.00584665
0.0472511
0.0472918
0.0476967
0.0477884
0.0464153
0.044707
0.0468201
0.0449195
0.0485378
0.0487521
0.0501642
0.0506051
0.0476038
0.0451702
0.0491954
0.0446436
0.0426038
0.0285641
0.0428041
0.024213
0.00552414
-0.00488237
0.000807517
-0.00506195
0.0389625
0.0157459
0.0269711
0.00306366
-0.00422694
-0.0055687
-0.00652846
-0.0062856
-0.00881089
-0.00881305
-0.00883899
-0.00912843
-0.00920778
-0.0093257
-0.00890005
-0.00902905
-0.00950652
-0.00982529
-0.00944219
-0.00957988
-0.00976403
-0.00973373
-0.00990917
-0.0101322
-0.0100199
-0.0104169
-0.0104221
-0.0108272
-0.00869411
0.00175185
-0.0103099
-0.010127
0.0247672
0.0452168
-0.00156098
0.0152639
-0.0110582
-0.0120242
-0.0114182
-0.012236
-0.0139345
-0.013659
-0.0135913
-0.0153259
-0.00999822
-0.0101949
-0.0104382
-0.0102293
-0.0104338
-0.0106815
-0.0107427
-0.0111403
-0.010981
-0.0113502
-0.0104273
-0.0106303
-0.0108722
-0.0105897
-0.0107881
-0.0110193
-0.0111568
-0.0114921
-0.0112853
-0.0115868
-0.0116719
-0.0123542
-0.0118072
-0.0123534
-0.0132817
-0.0143086
-0.013009
-0.0136655
-0.0118821
-0.0123195
-0.0119203
-0.0122741
-0.0127942
-0.0132328
-0.0126303
-0.0129396
0.053594
0.0542936
0.0282147
0.0305028
0.0500699
0.0327251
0.0208288
0.00293911
-0.00862811
-0.00699132
-0.0166973
-0.0170757
-0.0127086
-0.0153194
-0.0162747
-0.0146017
0.00684497
-0.00692497
-0.00912262
-0.0103327
-0.00787991
-0.00730202
-0.00916898
-0.00832554
-0.0129549
-0.0112128
-0.0128605
-0.0115709
-0.0100258
-0.00917365
-0.0105832
-0.00982909
-0.0150754
-0.0152797
-0.0141252
-0.0142374
-0.0148082
-0.0138274
-0.0139456
-0.0133321
-0.0135257
-0.0135913
-0.0131392
-0.0131839
-0.0134018
-0.0130032
-0.013059
-0.0127911
-0.0127323
-0.011792
-0.0126021
-0.0119119
-0.0109989
-0.0103546
-0.0112915
-0.0107622
-0.0125045
-0.0119971
-0.0124413
-0.0120668
-0.0115177
-0.0110922
-0.0117005
-0.0113666
-0.0109982
-0.00873631
-0.0106474
0.00992116
0.027019
0.0711507
0.0906436
0.158658
-0.00904054
0.0207092
-0.00659166
0.00585291
0.107127
0.163515
0.0662649
0.130751
0.066904
0.022389
0.153231
0.082306
-0.00881541
-0.0112135
0.00705129
-0.0114424
0.162643
0.104491
0.127493
0.059959
0.0184043
-0.0107617
7.64977e-05
-0.0113203
-0.00507451
-0.00445286
-0.00481321
-0.00407172
0.0151378
0.0506707
-0.00205478
-0.000357755
-0.00509473
-0.00440925
-0.00577799
-0.00522619
-0.00302948
-0.00194746
-0.00437358
-0.00386729
0.0479421
0.00676644
0.000659801
-0.00359372
-0.0134162
-0.0105976
-0.008108
-0.00773441
-0.000963227
-0.00308198
-0.0034228
-0.00439852
-0.00640998
-0.00715078
-0.00617581
-0.00692138
-0.0107773
-0.0103511
-0.0107576
-0.0102395
-0.00996672
-0.00963166
-0.00981908
-0.00947079
-0.0102419
-0.00986733
-0.010068
-0.00963383
-0.00952096
-0.00923356
-0.00928218
-0.00903764
-0.00932502
-0.00903001
-0.00915085
-0.00883782
-0.00872595
-0.00838866
-0.00850656
-0.00813393
-0.00894941
-0.00865843
-0.00878958
-0.0085321
-0.00833748
-0.00797341
-0.00823805
-0.00790294
-0.00944923
-0.00913796
-0.00819045
-0.00843091
-0.00894575
-0.00881309
-0.00855798
-0.00859108
-0.00788247
-0.00823519
-0.00767046
-0.00807819
-0.00843778
-0.00852926
-0.00835427
-0.00850993
-0.00864766
-0.00845341
-0.00853986
-0.0084297
-0.00821162
-0.00792694
-0.00826243
-0.00805334
-0.00854028
-0.00849207
-0.00858635
-0.00860295
-0.00839186
-0.00825525
-0.00857223
-0.00850943
-0.00668445
-0.00616645
-0.00764645
-0.00714379
-0.0055617
-0.00524852
-0.00667666
-0.00644473
-0.00850887
-0.00801974
-0.00922809
-0.00877568
-0.00761597
-0.00740054
-0.0084196
-0.00820988
-0.00509334
-0.00566166
-0.00635401
-0.00664988
-0.00666459
-0.00723447
-0.00720636
-0.00760411
-0.00732019
-0.00747093
-0.00811327
-0.00816518
-0.00778594
-0.00805588
-0.00832959
-0.00849923
-0.00982677
-0.00941748
-0.0103165
-0.0099605
-0.00909842
-0.00889309
-0.00967973
-0.00948446
-0.0107253
-0.0104247
-0.0110744
-0.010831
-0.0101829
-0.0100035
-0.0106312
-0.010474
-0.00878065
-0.00877032
-0.0093606
-0.00930732
-0.00884063
-0.00893487
-0.00931216
-0.00934577
-0.00987469
-0.00979183
-0.0103454
-0.0102397
-0.00974842
-0.00973143
-0.0101551
-0.0100904
-0.00781358
-0.00817262
-0.00803286
-0.00833482
-0.00843948
-0.00860954
-0.00858031
-0.0087561
-0.00835733
-0.00859333
-0.00870202
-0.00887865
-0.00879948
-0.00896272
-0.00904529
-0.00919099
-0.00871743
-0.0087778
-0.00888685
-0.00898345
-0.008804
-0.00881089
-0.009059
-0.00912843
-0.00909913
-0.00921648
-0.00932552
-0.00945424
-0.00932622
-0.00944219
-0.00958641
-0.00973373
-0.00906117
-0.0091846
-0.00941035
-0.00948629
-0.00931186
-0.00943508
-0.00957645
-0.0096755
-0.00974409
-0.00977672
-0.0100551
-0.0100458
-0.00983157
-0.00990526
-0.0100663
-0.0101141
-0.00956011
-0.00969056
-0.00978684
-0.00991269
-0.00983352
-0.00999822
-0.010058
-0.0102293
-0.00999976
-0.0101161
-0.0101901
-0.0102942
-0.0102573
-0.0104273
-0.0104274
-0.0105934

SCALARS U float
LOOKUP_TABLE default
0.0165535
0.0162571
0.0162028
0.0158466
0.0159873
0.0154707
0.0168833
0.0166316
0.0164179
0.0157885
0.0151407
0.0157172
0.0149233
0.0162841
0.0162772
0.0172102
0.0169658
0.0167646
0.0175356
0.0172587
0.0170295
0.0166462
0.0166506
0.0168856
0.0168622
0.0158443
0.0149158
0.0162514
0.0152529
0.0164503
0.0168548
0.0170074
0.0160682
0.0181519
0.0174748
0.0175268
0.0184746
0.0168194
0.0171878
0.0169949
0.0173108
0.0177755
0.0185783
0.017823
0.0185233
0.0178614
0.0175093
0.0172129
0.0181789
0.0177107
0.0173101
0.0170066
0.0169224
0.0170069
0.0168311
0.0184716
0.0178515
0.0173127
0.0187055
0.0179112
0.0172053
0.0168781
0.0165758
0.0166004
0.0161221
0.0169945
0.017248
0.016819
0.0170002
0.0176962
0.0183319
0.0173956
0.0180057
0.0164488
0.016539
0.0158257
0.0157775
0.0168865
0.0175147
0.0160629
0.0167642
0.0196419
0.0194522
0.0212983
0.0217105
0.0196535
0.020946
0.0228676
0.0238019
0.0241377
0.0253646
0.0221981
0.023279
0.0195548
0.0206207
0.0193729
0.0203015
0.021672
0.0226212
0.0212238
0.0220689
0.0250271
0.0262902
0.0255613
0.0266622
0.0241315
0.0247635
0.0258171
0.0266377
0.0258655
0.0263575
0.0252215
0.025549
0.0234298
0.0241079
0.0228078
0.023461
0.0247041
0.0252759
0.0241022
0.0248498
0.0191166
0.019978
0.0187918
0.019664
0.0208223
0.0215706
0.0204905
0.0211579
0.0183904
0.0193879
0.0178752
0.019206
0.0202976
0.0209402
0.0203957
0.021142
0.0221885
0.0227106
0.0216126
0.021904
0.0232468
0.0240314
0.0221755
0.0228628
0.021234
0.0212465
0.0213245
0.0210195
0.0211473
0.021569
0.0203389
0.0196657
0.0188502
0.0178726
0.0169686
0.0188781
0.0177168
0.0165652
0.0161337
0.0153867
0.0153867
0.0141771
0.0187956
0.0174355
0.0159356
0.0186434
0.0170342
0.0150094
0.0141877
0.0121364
0.0123352
0.00888694
0.0148012
0.0144959
0.0130393
0.0122006
0.0146578
0.0155102
0.0120607
0.0131718
0.00993659
0.00802512
0.00493837
0.00132272
0.00720567
0.00871445
-0.000473146
0.0018774
0.0185102
0.0165927
0.0138551
0.0185449
0.0163694
0.0129856
0.00992632
0.00470502
0.00806202
0.00196386
0.0190623
0.0170025
0.013693
0.020369
0.0191809
0.0172509
0.0091978
0.00477504
0.0151607
0.014384
-0.00108491
-0.00577085
-0.00351248
-0.00599354
-0.00718939
-0.00282392
-0.00477099
0.000613199
0.00282784
0.00463032
0.0160992
0.0198617
0.00867876
0.0133107
0.024658
0.027795
0.0171289
0.0191972
0.0158365
0.0194863
0.0210427
0.0221251
0.0227548
0.0245781
0.0134264
0.0202855
0.0099331
0.0217141
0.0263969
0.0295865
0.0322104
0.0376181
0.0222907
0.0216696
0.0248339
0.0239008
0.0202787
0.0179202
0.021976
0.0186255
0.0299074
0.0283729
0.0380546
0.035422
0.0258914
0.0225578
0.031752
0.0283856
0.00820486
0.0229739
0.0104739
0.0223699
0.036389
0.0444221
0.0338034
0.0425518
0.0174479
0.0202204
0.0250909
0.0174798
0.0241656
0.0297524
0.0119201
0.0122638
0.0462906
0.0432927
0.0465685
0.0456987
0.0381093
0.0337335
0.0413775
0.0366222
0.0339138
0.036389
0.0158012
0.0199961
0.0366296
0.0347914
0.0238155
0.0266293
0.0257414
0.0259053
0.0254062
0.0252867
0.0257576
0.0257595
0.0247775
0.0244682
0.0237388
0.0234076
0.0253994
0.0243832
0.0258491
0.0263164
0.0258042
0.0269618
0.0264593
0.0255779
0.0281254
0.0276822
0.0222515
0.0221173
0.0206449
0.0207979
0.0225214
0.0203863
0.0193625
0.0196764
0.0185412
0.0188499
0.0188266
0.0180418
0.0230766
0.0199949
0.0241411
0.0194352
0.0179978
0.0173711
0.016786
0.0166234
0.0253528
0.0277171
0.0246418
0.029331
0.0312228
0.0320079
0.036691
0.0385662
0.023464
0.0296129
0.019289
0.0200366
0.0375586
0.0371751
0.0202429
0.0187091
0.0264311
0.0183884
0.0293709
0.0160408
0.0145228
0.0155951
0.00991561
0.0133684
0.0272805
0.0135208
0.0205351
0.0214423
0.00571241
0.0108456
0.0182899
0.0190486
0.0180682
0.0182857
0.0178066
0.0179058
0.0177356
0.0176589
0.0176438
0.0176333
0.0174947
0.0173975
0.0176564
0.0176215
0.0173747
0.0175581
0.0171965
0.0176937
0.0177534
0.0178367
0.0180769
0.018232
0.0173202
0.0171578
0.0171021
0.0168865
0.0175234
0.0173557
0.0168426
0.016575
0.0165535
0.0162447
0.0171347
0.0168833
0.0178031
0.0176646
0.0182124
0.0180555
0.0174555
0.0172102
0.0178151
0.0175356
0.017394
0.0182896
0.0178561
0.019456
0.0187973
0.0189155
0.0200094
0.0199337
0.018324
0.0210081
0.0225372
0.0240283
0.0215956
0.0212139
0.0237005
0.0226789
0.0188122
0.0185574
0.0196165
0.0191689
0.0182245
0.0178614
0.0186757
0.0181789
0.0205747
0.0198551
0.0215776
0.0205307
0.0191447
0.0184716
0.0195755
0.0187055
0.0132994
0.0041539
0.011854
-0.001996
-0.0034151
0.00148374
-0.0111975