# vtk DataFile Version 2.0
Gerris simulation version 1.3.2 (131206-155120)
ASCII
DATASET UNSTRUCTURED_GRID

POINTS 1089 float
-0.5 0.46875 0
-0.46875 0.46875 0
-0.5 0.5 0
-0.46875 0.5 0
-0.4375 0.46875 0
-0.4375 0.5 0
-0.5 0.4375 0
-0.46875 0.4375 0
-0.4375 0.4375 0
-0.40625 0.46875 0
-0.40625 0.5 0
-0.375 0.46875 0
-0.375 0.5 0
-0.40625 0.4375 0
-0.375 0.4375 0
-0.5 0.40625 0
-0.46875 0.40625 0
-0.4375 0.40625 0
-0.5 0.375 0
-0.46875 0.375 0
-0.4375 0.375 0
-0.40625 0.40625 0
-0.375 0.40625 0
-0.40625 0.375 0
-0.375 0.375 0
-0.34375 0.46875 0
-0.34375 0.5 0
-0.3125 0.46875 0
-0.3125 0.5 0
-0.34375 0.4375 0
-0.3125 0.4375 0
-0.28125 0.46875 0
-0.28125 0.5 0
-0.25 0.46875 0
-0.25 0.5 0
-0.28125 0.4375 0
-0.25 0.4375 0
-0.34375 0.40625 0
-0.3125 0.40625 0
-0.34375 0.375 0
-0.3125 0.375 0
-0.28125 0.40625 0
-0.25 0.40625 0
-0.28125 0.375 0
-0.25 0.375 0
-0.5 0.34375 0
-0.46875 0.34375 0
-0.4375 0.34375 0
-0.5 0.3125 0
-0.46875 0.3125 0
-0.4375 0.3125 0
-0.40625 0.34375 0
-0.375 0.34375 0
-0.40625 0.3125 0
-0.375 0.3125 0
-0.5 0.28125 0
-0.46875 0.28125 0
-0.4375 0.28125 0
-0.5 0.25 0
-0.46875 0.25 0
-0.4375 0.25 0
-0.40625 0.28125 0
-0.375 0.28125 0
-0.40625 0.25 0
-0.375 0.25 0
-0.34375 0.34375 0
-0.3125 0.34375 0
-0.34375 0.3125 0
-0.3125 0.3125 0
-0.28125 0.34375 0
-0.25 0.34375 0
-0.28125 0.3125 0
-0.25 0.3125 0
-0.34375 0.28125 0
-0.3125 0.28125 0
-0.34375 0.25 0
-0.3125 0.25 0
-0.28125 0.28125 0
-0.25 0.28125 0
-0.28125 0.25 0
-0.25 0.25 0
-0.21875 0.46875 0
-0.21875 0.5 0
-0.1875 0.46875 0
-0.1875 0.5 0
-0.21875 0.4375 0
-0.1875 0.4375 0
-0.15625 0.46875 0
-0.15625 0.5 0
-0.125 0.46875 0
-0.125 0.5 0
-0.15625 0.4375 0
-0.125 0.4375 0
-0.21875 0.40625 0
-0.1875 0.40625 0
-0.21875 0.375 0
-0.1875 0.375 0
-0.15625 0.40625 0
-0.125 0.40625 0
-0.15625 0.375 0
-0.125 0.375 0
-0.09375 0.46875 0
-0.09375 0.5 0
-0.0625 0.46875 0
-0.0625 0.5 0
-0.09375 0.4375 0
-0.0625 0.4375 0
-0.03125 0.46875 0
-0.03125 0.5 0
0 0.46875 0
0 0.5 0
-0.03125 0.4375 0
0 0.4375 0
-0.09375 0.40625 0
-0.0625 0.40625 0
-0.09375 0.375 0
-0.0625 0.375 0
-0.03125 0.40625 0
0 0.40625 0
-0.03125 0.375 0
0 0.375 0
-0.21875 0.34375 0
-0.1875 0.34375 0
-0.21875 0.3125 0
-0.1875 0.3125 0
-0.15625 0.34375 0
-0.125 0.34375 0
-0.15625 0.3125 0
-0.125 0.3125 0
-0.21875 0.28125 0
-0.1875 0.28125 0
-0.21875 0.25 0
-0.1875 0.25 0
-0.15625 0.28125 0
-0.125 0.28125 0
-0.15625 0.25 0
-0.125 0.25 0
-0.09375 0.34375 0
-0.0625 0.34375 0
-0.09375 0.3125 0
-0.0625 0.3125 0
-0.03125 0.34375 0
0 0.34375 0
-0.03125 0.3125 0
0 0.3125 0
-0.09375 0.28125 0
-0.0625 0.28125 0
-0.09375 0.25 0
-0.0625 0.25 0
-0.03125 0.28125 0
0 0.28125 0
-0.03125 0.25 0
0 0.25 0
-0.5 0.21875 0
-0.46875 0.21875 0
-0.4375 0.21875 0
-0.5 0.1875 0
-0.46875 0.1875 0
-0.4375 0.1875 0
-0.40625 0.21875 0
-0.375 0.21875 0
-0.40625 0.1875 0
-0.375 0.1875 0
-0.5 0.15625 0
-0.46875 0.15625 0
-0.4375 0.15625 0
-0.5 0.125 0
-0.46875 0.125 0
-0.4375 0.125 0
-0.40625 0.15625 0
-0.375 0.15625 0
-0.40625 0.125 0
-0.375 0.125 0
-0.34375 0.21875 0
-0.3125 0.21875 0
-0.34375 0.1875 0
-0.3125 0.1875 0
-0.28125 0.21875 0
-0.25 0.21875 0
-0.28125 0.1875 0
-0.25 0.1875 0
-0.34375 0.15625 0
-0.3125 0.15625 0
-0.34375 0.125 0
-0.3125 0.125 0
-0.28125 0.15625 0
-0.25 0.15625 0
-0.28125 0.125 0
-0.25 0.125 0
-0.5 0.09375 0
-0.46875 0.09375 0
-0.4375 0.09375 0
-0.5 0.0625 0
-0.46875 0.0625 0
-0.4375 0.0625 0
-0.40625 0.09375 0
-0.375 0.09375 0
-0.40625 0.0625 0
-0.375 0.0625 0
-0.5 0.03125 0
-0.46875 0.03125 0
-0.4375 0.03125 0
-0.5 0 0
-0.46875 0 0
-0.4375 0 0
-0.40625 0.03125 0
-0.375 0.03125 0
-0.40625 0 0
-0.375 0 0
-0.34375 0.09375 0
-0.3125 0.09375 0
-0.34375 0.0625 0
-0.3125 0.0625 0
-0.28125 0.09375 0
-0.25 0.09375 0
-0.28125 0.0625 0
-0.25 0.0625 0
-0.34375 0.03125 0
-0.3125 0.03125 0
-0.34375 0 0
-0.3125 0 0
-0.28125 0.03125 0
-0.25 0.03125 0
-0.28125 0 0
-0.25 0 0
-0.21875 0.21875 0
-0.1875 0.21875 0
-0.21875 0.1875 0
-0.1875 0.1875 0
-0.15625 0.21875 0
-0.125 0.21875 0
-0.15625 0.1875 0
-0.125 0.1875 0
-0.21875 0.15625 0
-0.1875 0.15625 0
-0.21875 0.125 0
-0.1875 0.125 0
-0.15625 0.15625 0
-0.125 0.15625 0
-0.15625 0.125 0
-0.125 0.125 0
-0.09375 0.21875 0
-0.0625 0.21875 0
-0.09375 0.1875 0
-0.0625 0.1875 0
-0.03125 0.21875 0
0 0.21875 0
-0.03125 0.1875 0
0 0.1875 0
-0.09375 0.15625 0
-0.0625 0.15625 0
-0.09375 0.125 0
-0.0625 0.125 0
-0.03125 0.15625 0
0 0.15625 0
-0.03125 0.125 0
0 0.125 0
-0.21875 0.09375 0
-0.1875 0.09375 0
-0.21875 0.0625 0
-0.1875 0.0625 0
-0.15625 0.09375 0
-0.125 0.09375 0
-0.15625 0.0625 0
-0.125 0.0625 0
-0.21875 0.03125 0
-0.1875 0.03125 0
-0.21875 0 0
-0.1875 0 0
-0.15625 0.03125 0
-0.125 0.03125 0
-0.15625 0 0
-0.125 0 0
-0.09375 0.09375 0
-0.0625 0.09375 0
-0.09375 0.0625 0
-0.0625 0.0625 0
-0.03125 0.09375 0
0 0.09375 0
-0.03125 0.0625 0
0 0.0625 0
-0.09375 0.03125 0
-0.0625 0.03125 0
-0.09375 0 0
-0.0625 0 0
-0.03125 0.03125 0
0 0.03125 0
-0.03125 0 0
0 0 0
0.03125 0.46875 0
0.03125 0.5 0
0.0625 0.46875 0
0.0625 0.5 0
0.03125 0.4375 0
0.0625 0.4375 0
0.09375 0.46875 0
0.09375 0.5 0
0.125 0.46875 0
0.125 0.5 0
0.09375 0.4375 0
0.125 0.4375 0
0.03125 0.40625 0
0.0625 0.40625 0
0.03125 0.375 0
0.0625 0.375 0
0.09375 0.40625 0
0.125 0.40625 0
0.09375 0.375 0
0.125 0.375 0
0.15625 0.46875 0
0.15625 0.5 0
0.1875 0.46875 0
0.1875 0.5 0
0.15625 0.4375 0
0.1875 0.4375 0
0.21875 0.46875 0
0.21875 0.5 0
0.25 0.46875 0
0.25 0.5 0
0.21875 0.4375 0
0.25 0.4375 0
0.15625 0.40625 0
0.1875 0.40625 0
0.15625 0.375 0
0.1875 0.375 0
0.21875 0.40625 0
0.25 0.40625 0
0.21875 0.375 0
0.25 0.375 0
0.03125 0.34375 0
0.0625 0.34375 0
0.03125 0.3125 0
0.0625 0.3125 0
0.09375 0.34375 0
0.125 0.34375 0
0.09375 0.3125 0
0.125 0.3125 0
0.03125 0.28125 0
0.0625 0.28125 0
0.03125 0.25 0
0.0625 0.25 0
0.09375 0.28125 0
0.125 0.28125 0
0.09375 0.25 0
0.125 0.25 0
0.15625 0.34375 0
0.1875 0.34375 0
0.15625 0.3125 0
0.1875 0.3125 0
0.21875 0.34375 0
0.25 0.34375 0
0.21875 0.3125 0
0.25 0.3125 0
0.15625 0.28125 0
0.1875 0.28125 0
0.15625 0.25 0
0.1875 0.25 0
0.21875 0.28125 0
0.25 0.28125 0
0.21875 0.25 0
0.25 0.25 0
0.28125 0.46875 0
0.28125 0.5 0
0.3125 0.46875 0
0.3125 0.5 0
0.28125 0.4375 0
0.3125 0.4375 0
0.34375 0.46875 0
0.34375 0.5 0
0.375 0.46875 0
0.375 0.5 0
0.34375 0.4375 0
0.375 0.4375 0
0.28125 0.40625 0
0.3125 0.40625 0
0.28125 0.375 0
0.3125 0.375 0
0.34375 0.40625 0
0.375 0.40625 0
0.34375 0.375 0
0.375 0.375 0
0.40625 0.46875 0
0.40625 0.5 0
0.4375 0.46875 0
0.4375 0.5 0
0.40625 0.4375 0
0.4375 0.4375 0
0.46875 0.46875 0
0.46875 0.5 0
0.5 0.46875 0
0.5 0.5 0
0.46875 0.4375 0
0.5 0.4375 0
0.40625 0.40625 0
0.4375 0.40625 0
0.40625 0.375 0
0.4375 0.375 0
0.46875 0.40625 0
0.5 0.40625 0
0.46875 0.375 0
0.5 0.375 0
0.28125 0.34375 0
0.3125 0.34375 0
0.28125 0.3125 0
0.3125 0.3125 0
0.34375 0.34375 0
0.375 0.34375 0
0.34375 0.3125 0
0.375 0.3125 0
0.28125 0.28125 0
0.3125 0.28125 0
0.28125 0.25 0
0.3125 0.25 0
0.34375 0.28125 0
0.375 0.28125 0
0.34375 0.25 0
0.375 0.25 0
0.40625 0.34375 0
0.4375 0.34375 0
0.40625 0.3125 0
0.4375 0.3125 0
0.46875 0.34375 0
0.5 0.34375 0
0.46875 0.3125 0
0.5 0.3125 0
0.40625 0.28125 0
0.4375 0.28125 0
0.40625 0.25 0
0.4375 0.25 0
0.46875 0.28125 0
0.5 0.28125 0
0.46875 0.25 0
0.5 0.25 0
0.03125 0.21875 0
0.0625 0.21875 0
0.03125 0.1875 0
0.0625 0.1875 0
0.09375 0.21875 0
0.125 0.21875 0
0.09375 0.1875 0
0.125 0.1875 0
0.03125 0.15625 0
0.0625 0.15625 0
0.03125 0.125 0
0.0625 0.125 0
0.09375 0.15625 0
0.125 0.15625 0
0.09375 0.125 0
0.125 0.125 0
0.15625 0.21875 0
0.1875 0.21875 0
0.15625 0.1875 0
0.1875 0.1875 0
0.21875 0.21875 0
0.25 0.21875 0
0.21875 0.1875 0
0.25 0.1875 0
0.15625 0.15625 0
0.1875 0.15625 0
0.15625 0.125 0
0.1875 0.125 0
0.21875 0.15625 0
0.25 0.15625 0
0.21875 0.125 0
0.25 0.125 0
0.03125 0.09375 0
0.0625 0.09375 0
0.03125 0.0625 0
0.0625 0.0625 0
0.09375 0.09375 0
0.125 0.09375 0
0.09375 0.0625 0
0.125 0.0625 0
0.03125 0.03125 0
0.0625 0.03125 0
0.03125 0 0
0.0625 0 0
0.09375 0.03125 0
0.125 0.03125 0
0.09375 0 0
0.125 0 0
0.15625 0.09375 0
0.1875 0.09375 0
0.15625 0.0625 0
0.1875 0.0625 0
0.21875 0.09375 0
0.25 0.09375 0
0.21875 0.0625 0
0.25 0.0625 0
0.15625 0.03125 0
0.1875 0.03125 0
0.15625 0 0
0.1875 0 0
0.21875 0.03125 0
0.25 0.03125 0
0.21875 0 0
0.25 0 0
0.28125 0.21875 0
0.3125 0.21875 0
0.28125 0.1875 0
0.3125 0.1875 0
0.34375 0.21875 0
0.375 0.21875 0
0.34375 0.1875 0
0.375 0.1875 0
0.28125 0.15625 0
0.3125 0.15625 0
0.28125 0.125 0
0.3125 0.125 0
0.34375 0.15625 0
0.375 0.15625 0
0.34375 0.125 0
0.375 0.125 0
0.40625 0.21875 0
0.4375 0.21875 0
0.40625 0.1875 0
0.4375 0.1875 0
0.46875 0.21875 0
0.5 0.21875 0
0.46875 0.1875 0
0.5 0.1875 0
0.40625 0.15625 0
0.4375 0.15625 0
0.40625 0.125 0
0.4375 0.125 0
0.46875 0.15625 0
0.5 0.15625 0
0.46875 0.125 0
0.5 0.125 0
0.28125 0.09375 0
0.3125 0.09375 0
0.28125 0.0625 0
0.3125 0.0625 0
0.34375 0.09375 0
0.375 0.09375 0
0.34375 0.0625 0
0.375 0.0625 0
0.28125 0.03125 0
0.3125 0.03125 0
0.28125 0 0
0.3125 0 0
0.34375 0.03125 0
0.375 0.03125 0
0.34375 0 0
0.375 0 0
0.40625 0.09375 0
0.4375 0.09375 0
0.40625 0.0625 0
0.4375 0.0625 0
0.46875 0.09375 0
0.5 0.09375 0
0.46875 0.0625 0
0.5 0.0625 0
0.40625 0.03125 0
0.4375 0.03125 0
0.40625 0 0
0.4375 0 0
0.46875 0.03125 0
0.5 0.03125 0
0.46875 0 0
0.5 0 0
-0.5 -0.03125 0
-0.46875 -0.03125 0
-0.4375 -0.03125 0
-0.5 -0.0625 0
-0.46875 -0.0625 0
-0.4375 -0.0625 0
-0.40625 -0.03125 0
-0.375 -0.03125 0
-0.40625 -0.0625 0
-0.375 -0.0625 0
-0.5 -0.09375 0
-0.46875 -0.09375 0
-0.4375 -0.09375 0
-0.5 -0.125 0
-0.46875 -0.125 0
-0.4375 -0.125 0
-0.40625 -0.09375 0
-0.375 -0.09375 0
-0.40625 -0.125 0
-0.375 -0.125 0
-0.34375 -0.03125 0
-0.3125 -0.03125 0
-0.34375 -0.0625 0
-0.3125 -0.0625 0
-0.28125 -0.03125 0
-0.25 -0.03125 0
-0.28125 -0.0625 0
-0.25 -0.0625 0
-0.34375 -0.09375 0
-0.3125 -0.09375 0
-0.34375 -0.125 0
-0.3125 -0.125 0
-0.28125 -0.09375 0
-0.25 -0.09375 0
-0.28125 -0.125 0
-0.25 -0.125 0
-0.5 -0.15625 0
-0.46875 -0.15625 0
-0.4375 -0.15625 0
-0.5 -0.1875 0
-0.46875 -0.1875 0
-0.4375 -0.1875 0
-0.40625 -0.15625 0
-0.375 -0.15625 0
[...]
POINT_DATA 1089
SCALARS T float
LOOKUP_TABLE default
0
0
0
0
0
0
0
0
0
0
0
0
0
0
0
0
0
0
0
0
0
0
0
0
0
0
0
0
0
0
0
0
0
0
0
0
0
0
0
0
0
0
0
0
0
0
0
0
0
0
0
0
0
0
0
0
0
0
0
0
0
0
0
0
0
0
0
0
0
0
0
0
0
0
0
0
0
0
0
0
0
0
0
0
0
0
0
0
0
0
0
0
0
0
0
0
0
0
0
0
0
0
0
0
0
0
0
0
0
0
0
0
0
0
0
0
0
0
0
0
0
0
0
0
0
0
0
0
0
0
0
0
0
0
0
0
0
0
0
0
0
0
0
0
0
0
0
0
0
0
0
0
0
0
0
0
0
0
0
0
0
0
0
0
0
0
0
0
0
0
0
0
0
0
0
0
0
0
0
0
0
0
0
0
0
0
0
0
0
0
0
0
0
0
0
0
0
0
0
0
0
0
0
0
0
0
0
0
0
0
0
0
0
0
0
0
0
0
0
0
0
0
0
0
0.00799405
0
0
0
0
0
0
0
0
0
0
0
0
0
0
0.00166574
0.0693356
0
0
0
0
0
0
0
0
0
0
0.189281
0.24562
0
0
0.199178
0.0809725
0
0.0376068
0.0223535
0.284148
0.242683
0.522746
0.715205
0.95341
0.174503
0.648692
0.399244
0.89125
0.974188
1
1
1
0.689281
0.74562
1
1
0.699178
0.543141
1
0.962168
1
1
1
1
1
1
1
1
0
0
0
0
0
0
0
0
0
0
0
0
0
0
0
0
0
0
0
0
0
0
0
0
0
0
0
0
0
0
0
0
0
0
0
0
0
0
0.00368082
0.0692983
0
0
0
0
0
0
0
0
0
0
0
0
0
0
0
0
0
0.00687355
0
0.097758
0.190453
0.499197
0.527657
0.929899
0
0.219754
0
0.201797
0.719754
1
0.701797
1
0
0
0
0
0
0
0
0
0
0
0
0
0
0
0.156956
0.12359
0
0
0.032252
0
0
0
0
0
0
0
0
0
0
0
0
0
0
0
0
0
0
0
0
0
0.656956
0.616399
1
0.992808
0.372052
0.0969913
0.821912
0.336634
1
1
1
1
0.982112
0.517366
0.970129
0.501321
0
0
0.00753111
0
0
0
0
0
0.035254
0
0.031192
0
0
0
0
0
0
0
0
0
0
0
0
0
0
0
0.00580255
0
0
0
0
0
0
0.0736119
0
0.000684315
0.464785
0.890302
0.141857
0.416309
0
0
0
0
0
0.0260068
0
0
0.269978
0.0520069
0.746566
0.319838
0
0
0.0354406
0
0.982391
0.690051
1
0.919294
0.20766
0
0.437697
0.0184038
0
0
0
0
0
0
0
0
0
0
0
0
0
0
0
0
0.999129
0.975184
0.576187
0.535993
0.763613
0.291898
0.303242
0.0683
0.0770579
0.0608086
0
0
0.0097576
0
0
0
0.00346913
0
0
0
0
0
0
0
0
0
0
0
0
0
0
0
0
0
0
0
0
0
0
0
0.00474988
0.0590127
0.169906
0.474168
0.092926
0.0386632
0.587633
0.383796
0
0
0
0
0
0
0
0
0
0
0.100426
0
0
0
0
0
0
0
0
0
0
0
0
0
0
0
0
0
0
0
0
0
0
0
0
0
0
0
0
0
0
0.0532162
0
0.0976238
0
0
0
0
0
0.0723574
0
0.0199558
0
0
0
0
0
0
0
0
0
0
0
0
0
0
0
0
0
0
0
0
0
0
0
0
0
0
0
0
0
0
0
0
0
0
0
0
0.542316
0.9891
0.597624
1
1
1
1
1
0.571827
0.999469
0.462546
0.94259
1
1
1
1
1
1
1
1
1
1
1
1
1
1
1
1
1
1
1
1
0.258391
0.757439
0.0652703
0.42314
0.999048
1
0.856542
0.998673
0
0.108821
0
0
0.412566
0.721451
0.0550725
0.222778
1
1
1
1
1
1
1
0.997581
0.888553
0.941702
0.388553
0.441702
0.888479
0.721717
0.388479
0.224136
0
0
0
0
0
0
0
0
0
0
0
0
0
0
0
0
0
0
0
0
0
0
0
0
0
0
0
0
0
0
0
0
0
0
0
0
0
0
0
0
0
0
0
0
0
0
0
0
0
0
0
0
0
0
0
0
0
0
0
0
0
0
0
0
0
0
0
0
0
0
0
0
0
0
0
0
0
0
0
0
0
0
0
0
0
0
0
0
0
0
0
0
0
0
0
0
0
0
0
0
0
0
0
0
0
0
0
0
0
0
0
0
0
0
0
0
0
0
0
0
0
0
0
0
0
0
0
0
0
0
0
0
0
0
0
0
1
0.997075
1
1
0.576983
0.0799084
0.628323
0.128323
1
1
1
0.953074
0.598852
0.0988523
0.485276
0.0322015
0
0
0
0
0
0.0141115
0
0.0171187
0
0
0
0
0
0.0030072
0
0
0.99981
0.77383
0.858727
0.432092
0.274188
0.00016764
0.0709461
0
0.415428
0.111336
0.0565111
0
0
0
0
0
0
0
0
0
0
0
0
0
0
0
0
0
0
0
0
0
0.429259
0.915148
0.486095
0.968976
0.994707
0.793487
1
0.854211
0.26445
0.657798
0.0424593
0.188814
0.774542
0.54588
0.274542
0.140023
0.298781
0
0.354211
0
0
0
0
0
0.167692
0
0.0118356
0
0
0
0
0
0
0
0
0
0
0
0
0
0
0
0
0
0
0
0
0
0
0
0
0
0
0
0
0
0
0
0
0
0
0
0
0
0
0
0
0
0
0
0
0
0
0
0
0
0
0
0
0
0
0
0
0
0
0
0
0
0
0
0
0
0
0
0
0
0
0
0
0
0
0
0
0
0
0
0
0
0
0
0
0
0
0
0
0
0
0
0
0
0
0
0
0
0
0
0
0
0
0
0
0
0
0
0
0
0
0
0
0
0
0
0
0
0
0
0
0
0
0
0
0
0
0
0
0
0
0
0
0
0
0
0
0
0
0
0
0
0
0
0
0
0
0
0
0
0
0
0
0
0
0
0
0
0
0
0
0
0
0
0
0

SCALARS P float
LOOKUP_TABLE default
-0.0108881
-0.010923
-0.010867
-0.0109016
-0.0109654
-0.0109447
-0.010904
-0.0109378
-0.0109787
-0.0110171
-0.0109974
-0.0110777
-0.0110599
-0.0110289
-0.0110878
-0.0109095
-0.0109421
-0.0109819
-0.0109117
-0.010941
-0.0109786
-0.0110312
-0.0110893
-0.0110262
-0.0110835
-0.0111471
-0.0111321
-0.0112241
-0.0112132
-0.0111551
-0.0112296
-0.0113074
-0.011302
-0.0113944
-0.0113959
-0.0113099
-0.0113933
-0.0111558
-0.0112298
-0.0111501
-0.011225
-0.0113097
-0.0113928
-0.0113068
-0.0113929
-0.0109059
-0.0109289
-0.0109643
-0.0108839
-0.0109055
-0.0109402
-0.0110106
-0.011068
-0.0109852
-0.0110428
-0.0108464
-0.0108687
-0.0109032
-0.0108288
-0.0108328
-0.010858
-0.0109474
-0.0110052
-0.0108976
-0.0109537
-0.0111359
-0.0112136
-0.0111126
-0.0111944
-0.0112999
-0.0113924
-0.0112876
-0.0113899
-0.0110773
-0.0111643
-0.0110274
-0.0111199
-0.0112667
-0.0113824
-0.0112334
-0.0113665
-0.0114815
-0.0114914
-0.0115647
-0.0115834
-0.0114766
-0.0115557
-0.0116385
-0.0116658
-0.0116981
-0.0117321
-0.0116261
-0.0116834
-0.0114762
-0.0115556
-0.0114802
-0.0115643
-0.0116269
-0.0116856
-0.0116407
-0.0117043
-0.0117385
-0.0117757
-0.0117568
-0.0117929
-0.0117235
-0.011744
-0.0117515
-0.0117815
-0.0117241
-0.0117437
-0.0117438
-0.011724
-0.0117278
-0.0117513
-0.0117508
-0.011778
-0.0117551
-0.0117407
-0.0117848
-0.0117731
-0.0114878
-0.0115812
-0.0114981
-0.0116062
-0.0116673
-0.0117397
-0.0117077
-0.0117938
-0.011509
-0.0116388
-0.0115182
-0.0116787
-0.0117639
-0.0118703
-0.0118383
-0.0119745
-0.011793
-0.0118243
-0.0118566
-0.0118925
-0.0118324
-0.0118202
-0.0118995
-0.0118818
-0.0119466
-0.0119878
-0.0120697
-0.0121173
-0.0119906
-0.0119602
-0.0121124
-0.0120607
-0.0107695
-0.0107724
-0.010794
-0.0106834
-0.010692
-0.0107119
-0.0108305
-0.0108842
-0.0107445
-0.0107938
-0.0106084
-0.0106104
-0.010621
-0.010514
-0.0105123
-0.0105138
-0.0106433
-0.0106815
-0.0105228
-0.0105443
-0.0109582
-0.0110551
-0.0108652
-0.010964
-0.0111803
-0.0113338
-0.0110999
-0.0112765
-0.0107432
-0.0108357
-0.0105876
-0.0106626
-0.0109755
-0.0111715
-0.0107946
-0.0110001
-0.0104208
-0.0104108
-0.0103985
-0.0103347
-0.0103122
-0.0102815
-0.0103879
-0.0103834
-0.0102449
-0.0102048
-0.0102357
-0.0102088
-0.0101637
-0.0101647
-0.0101293
-0.0100665
-0.0101001
-0.0100188
-0.00997443
-0.009851
-0.0103946
-0.0104327
-0.0101679
-0.0101421
-0.0105317
-0.0107149
-0.0101619
-0.0102402
-0.00991896
-0.00980171
-0.00968522
-0.00947119
-0.00967898
-0.0095495
-0.00918309
-0.00836569
-0.0115184
-0.0117226
-0.0115043
-0.011771
-0.0119355
-0.0121175
-0.0120649
-0.0123139
-0.0114492
-0.0118036
-0.0113342
-0.0118272
-0.0122331
-0.0125951
-0.0123608
-0.00844152
-0.0122412
-0.0122983
-0.0124762
-0.0125446
-0.0122823
-0.0121973
-0.0125137
-0.0123823
-0.0128178
-0.012907
-0.000904555
0.00258626
-0.012855
-0.0126447
-0.000454111
-0.00785012
-0.0110892
-0.0093739
-0.00920082
0.00586135
0.00283657
0.0202057
0.0318604
0.0468423
0.000218527
0.0273663
0.0132513
0.0406545
0.0467179
0.0487796
0.0475
0.048124
0.0307767
0.0343213
0.0498692
0.0499274
0.0312562
0.0211971
0.049898
0.0472465
0.0490604
0.0491789
0.0484655
0.0485991
0.0491019
0.0488455
0.0485146
0.0482211
-0.0116775
-0.0116836
-0.0116158
-0.0116073
-0.011687
-0.0116363
-0.0115427
-0.01152
-0.0114619
-0.0114266
-0.0115748
-0.0115054
-0.0117102
-0.011668
-0.0117461
-0.011709
-0.0116165
-0.0115598
-0.0116664
-0.0116238
-0.0113725
-0.0113285
-0.0112779
-0.0112296
-0.011425
-0.0113352
-0.0111678
-0.0111259
-0.0110534
-0.0110262
-0.0112145
-0.0110743
-0.0114922
-0.011414
-0.0115763
-0.0115238
-0.0112853
-0.0111038
-0.01097
-0.00309269
-0.0117918
-0.0117553
-0.0118444
-0.0117997
-0.0117199
-0.0116968
-0.0117625
-0.0117513
-0.011902
-0.0118341
-0.0119678
-0.0118577
-0.0117733
-0.0117438
-0.0117486
-0.0116608
-0.0116926
-0.0108353
-0.0117923
0.000217169
0.0112461
0.048007
0.0517764
0.0994644
-0.0117746
0.015219
-0.0116079
0.0134625
0.0750567
0.107766
0.0730552
0.107605
-0.0109384
-0.0109329
-0.0108382
-0.0108569
-0.0109143
-0.0107628
-0.0108117
-0.0108229
-0.0108246
-0.0108159
-0.0107626
-0.010825
-0.0108557
-0.0105992
0.00727328
0.00349458
-0.0106675
-0.0108347
-0.0071046
-0.0108715
-0.0108291
-0.0108154
-0.010842
-0.0108239
-0.0108372
-0.0108569
-0.010863
-0.0108424
-0.0108881
-0.0108672
-0.0108796
-0.010904
-0.0108425
-0.0108657
-0.0108499
-0.0108756
-0.0108869
-0.0109095
-0.0108927
-0.0109117
0.0663512
0.0612378
0.107426
0.106085
0.0321695
5.87515e-06
0.0851928
0.027969
0.107501
0.107252
0.107512
0.107424
0.104969
0.0496705
0.103915
0.0479927
-0.0109705
-0.010917
-0.0101801
-0.0108661
-0.0108997
-0.0109059
-0.0108699
-0.0108839
-0.00710675
-0.0107911
-0.00768585
-0.0108997
-0.0108186
-0.0108464
-0.0108342
-0.0108288
-0.0120512
-0.011881
-0.0121624
-0.0119155
-0.011708
-0.0115498
-0.011666
-0.0114489
-0.0123101
-0.0119549
-0.0121867
-0.0119994
-0.0116034
-0.0113265
-0.011492
-0.0111491
-0.0114067
-0.00192295
-0.0112607
-0.0109362
0.0451642
0.0951411
0.00651664
0.0393849
-0.0111154
-0.0109482
-0.010925
-0.0107749
-0.010801
-0.00735093
-0.0106752
-0.0106476
0.0040459
-0.00890444
0.033257
0.00732004
-0.0112981
-0.0108736
-0.00887175
-0.0103998
0.0472106
0.0291215
0.0476983
0.0419609
0.00140813
-0.00969512
0.0146659
-0.00813843
-0.0106563
-0.0105392
-0.0102712
-0.0102278
-0.0104949
-0.0105049
-0.0102572
-0.010327
-0.00975434
-0.0098414
-0.00919347
-0.00941714
-0.00997011
-0.0101293
-0.00960181
-0.00976371
0.107342
0.104329
0.0579318
0.0529091
0.0792551
0.0234201
0.0251434
-0.00272283
-0.000952487
-0.00289772
-0.0105829
-0.0104988
-0.00916973
-0.0105676
-0.0104823
-0.0105175
-0.010576
-0.0108452
-0.0107177
-0.0106918
-0.010781
-0.0107695
-0.0106867
-0.0106834
-0.0106326
-0.0106159
-0.0105341
-0.010517
-0.0106183
-0.0106084
-0.0105224
-0.010514
-0.0105305
-0.010591
-0.0104651
-0.0106846
-0.0105695
-0.010493
-0.0106818
-0.0104706
-0.00959051
-0.000369573
0.0210488
0.0762946
0.00513721
-0.00400371
0.0962381
0.0581736
-0.0104613
-0.0104366
-0.0103796
-0.0103678
-0.0104332
-0.0104208
-0.0103533
-0.0103347
-0.0101548
-0.0102481
0.00718711
-0.0101474
-0.0102428
-0.0102357
-0.0101603
-0.0101647
-0.0101426
-0.0100838
-0.0100005
-0.0101039
-0.0100432
-0.00995709
-0.00988309
-0.00972457
-0.00983093
-0.00965622
-0.0101189
-0.0100532
-0.00996417
-0.0101424
-0.0100838
-0.0100044
-0.00983762
-0.00966425
-0.00989367
-0.00974314
-0.0095047
-0.00920909
-0.00940832
-0.00906731
-0.00878371
-0.00536533
-0.00856581
-0.00270256
-0.0094199
-0.00908425
-0.00953543
-0.00925228
-0.00859281
-0.00401038
-0.00885051
-0.00716376
-0.0101733
-0.0101333
-0.0100742
-0.0102385
-0.0102115
-0.0101722
-0.00999122
-0.00988045
-0.0101201
-0.0100551
-0.010306
-0.0102958
-0.0102792
-0.0103884
-0.0103903
-0.0103918
-0.0102587
-0.0102376
-0.0103967
-0.0104098
-0.00973509
-0.00954636
-0.00997967
-0.00989759
-0.00930884
-0.00899197
-0.00983243
-0.00978998
-0.0102242
-0.0102293
-0.0104413
-0.0105036
-0.010284
-0.0104216
-0.0106251
-0.0108389
0.0211507
0.0455729
0.0241144
0.0458918
0.0470448
0.0476923
0.0468345
0.0475178
0.0227791
0.0458612
0.016952
0.043175
0.0468804
0.0475945
0.0472068
0.047953
0.0480713
0.0482172
0.0479154
0.0480639
0.0481213
0.0477931
0.0479522
0.0475928
0.0480096
0.0481601
0.0483708
0.0485192
0.0480327
0.047648
0.0483712
0.0479614
0.00556387
0.0335881
-0.00607712
0.0146391
0.047802
0.0486075
0.0404986
0.0495709
-0.0107518
-0.00460673
-0.0112104
-0.0118371
0.0137989
0.0332677
-0.00895343
0.00150164
0.0490085
0.0491539
0.0499499
0.0500687
0.0489768
0.0485293
0.0498706
0.0492466
0.0442899
0.0478127
0.0121171
0.0155215
0.0440817
0.0328791
0.0120173
0.00151175
-0.010469
-0.0104819
-0.0104987
-0.0105494
-0.0105699
-0.0105975
-0.0105237
-0.0105617
-0.010636
-0.0106898
-0.0106236
-0.0106497
-0.0106849
-0.0106905
-0.0107203
-0.0107599
-0.0107322
-0.0107951
-0.0108119
-0.0108787
-0.0106224
-0.0107161
-0.0107667
-0.0108745
-0.0108638
-0.0110855
-0.0110275
-0.0112361
-0.0108794
-0.0109903
-0.0109642
-0.0110714
-0.0111362
-0.0113216
-0.0112048
-0.0113652
-0.0107486
-0.0107806
-0.0108228
-0.0107973
-0.0108307
-0.0108739
-0.010877
-0.0109446
-0.0109284
-0.010995
-0.0108364
-0.0108707
-0.0109142
-0.0108672
-0.0109016
-0.0109447
-0.0109681
-0.0110328
-0.0109974
-0.0110599
-0.0110282
-0.0111291
-0.0110749
-0.0111684
-0.0112492
-0.0113873
-0.0112759
-0.0113952
-0.0111087
-0.0111956
-0.0111321
-0.0112132
-0.0112925
-0.0113972
-0.011302
-0.0113959
-0.0114158
-0.0118885
-0.0115168
-0.0118707
-0.0125207
-0.0131211
-0.0122892
-0.0126749
-0.0115523
-0.0118217
-0.011553
-0.0117594
-0.0121159
-0.012374
-0.0119704
-0.0121513
-0.0135169
-0.0136556
-0.0129466
-0.0130435
-0.0134345
-0.012903
-0.0128913
-0.0125388
-0.0125447
-0.0125981
-0.012271
-0.0123075
-0.0125023
-0.0122837
-0.012242
-0.012092
-0.0115412
-0.0117025
-0.0115229
-0.0116521
-0.011859
-0.0119892
-0.0117729
-0.0118718
-0.0115058
-0.0116127
-0.0114914
-0.0115834
-0.0117099
-0.0117884
-0.0116658
-0.0117321
-0.0120732
-0.012098
-0.0119354
-0.0119552
-0.0120546
-0.0119523
-0.0119258
-0.011853
-0.011839
-0.0118564
-0.0117757
-0.0117929
-0.0118374
-0.0117853
-0.0117815
-0.0117437
0.0472204
0.0461277
0.0469512
0.0460534
0.0224087
-0.00451328
0.0251529
-0.00165458
0.0469838
0.0460775
0.0472652
0.0435926
0.0236473
-0.00319617
0.0175843
-0.00683589
-0.00867698
-0.00901853
-0.00834531
-0.0087801
-0.00918891
-0.00630391
-0.00898309
-0.00545552
-0.00837425
-0.00877618
-0.00868358
-0.00898706
-0.00898274
-0.00837046
-0.00916934
-0.00922771
0.0477487
0.0338615
0.0400805
0.0145703
0.00584271
-0.00891627
-0.00590374
-0.0096069
0.0135493
-0.00448969
-0.00867031
-0.0115044
-0.0104928
-0.0101919
-0.0109603
-0.0106209
-0.00914316
-0.00931939
-0.00963945
-0.00967798
-0.00945868
-0.00957405
-0.00973509
-0.00979613
-0.0100773
-0.0100262
-0.0104316
-0.0103199
-0.0100222
-0.0100454
-0.0102637
-0.0102439
0.0692448
0.157599
0.0799633
0.167183
0.172076
0.132846
0.172524
0.14431
0.0395066
0.110917
-0.00149199
0.0250659
0.131635
0.0889424
0.0404441
0.0154985
0.0423205
-0.0102178
0.052978
-0.0101832
-0.0101851
-0.0101426
-0.0101573
-0.0101039
0.019787
-0.0101802
-0.00810033
-0.010207
-0.0101654
-0.0101189
-0.0101838
-0.0101424
-0.00970812
-0.00992508
-0.00986514
-0.0100121
-0.0100783
-0.0101416
-0.0101491
-0.0102065
-0.010082
-0.0101495
-0.0102448
-0.0102757
-0.0102137
-0.0102525
-0.0103137
-0.0103383
-0.010191
-0.0101967
-0.0102466
-0.0102558
-0.0101938
-0.0101733
-0.0102529
-0.0102385
-0.0102872
-0.0103022
-0.0103623
-0.0103757
-0.0103084
-0.010306
-0.0103841
-0.0103884
-0.0122411
-0.0116531
-0.0121006
-0.0116923
-0.0112074
-0.0108954
-0.0113484
-0.0110796
-0.0119925
-0.0116946
-0.0118884
-0.0116707
-0.0114248
-0.0111985
-0.0114617
-0.011275
-0.0106916
-0.0105563
-0.010883
-0.0107401
-0.0104727
-0.0104257
-0.0106407
-0.010575
-0.0110195
-0.0108804
-0.011117
-0.0109866
-0.0107758
-0.0106998
-0.0108818
-0.0108004
-0.0118083
-0.0116456
-0.0117475
-0.0116236
-0.0114813
-0.0113267
-0.0114929
-0.011364
-0.0117066
-0.0116103
-0.0116836
-0.0116073
-0.0115044
-0.0113955
-0.01152
-0.0114266
-0.0111882
-0.0110677
-0.0112422
-0.0111309
-0.0109649
-0.0108807
-0.0110301
-0.0109431
-0.0112871
-0.0111829
-0.0113285
-0.0112296
-0.0110822
-0.010991
-0.0111259
-0.0110262
-0.0104017
-0.0104007
-0.0105331
-0.0105132
-0.0104105
-0.0104206
-0.0105068
-0.0105064
-0.010646
-0.0106122
-0.0107387
-0.0106958
-0.0105933
-0.0105846
-0.010669
-0.0106546
-0.0104351
-0.0104466
-0.0105131
-0.0105219
-0.0104579
-0.010469
-0.0105341
-0.0105494
-0.0105853
-0.0105919
-0.0106514
-0.0106564
-0.0106049
-0.0106236
-0.0106697
-0.0106905
-0.0108133
-0.0107636
-0.0108702
-0.0108143
-0.0107313
-0.0107136
-0.0107789
-0.0107605
-0.0109105
-0.0108471
-0.0109329
-0.0108569
-0.0108106
-0.0107946
-0.0108229
-0.0108159
-0.0107081
-0.0107123
-0.0107548
-0.0107591
-0.0107263
-0.0107486
-0.010774
-0.0107973
-0.0107902
-0.0107958
-0.0108154
-0.0108239
-0.0108123
-0.0108364
-0.0108424
-0.010867

SCALARS U float
LOOKUP_TABLE default
0.0208089
0.0209644
0.0204762
0.0206535
0.0211114
0.0208308
0.0211317
0.0212524
0.0213644
0.0212581
0.0210085
0.021402
0.0211838
0.0214781
0.0215903
0.0214218
0.0215002
0.0215761
0.0216198
0.0216604
0.0217132
0.0216583
0.0217416
0.0217751
0.0218391
0.0215368
0.0213508
0.0216517
0.0214995
0.0216943
0.0217788
0.0217324
0.0216164
0.0217621
0.0216846
0.0218293
0.0218289
0.0218189
0.0218789
0.021898
0.0219417
0.0219068
0.0218855
0.0219565
0.0219251
0.0217185
0.0217348
0.0217763
0.021574
0.0216535
0.021729
0.0218251
0.0218755
0.0217867
0.0218339
0.0213208
0.0214973
0.0216138
0.0211297
0.0213529
0.0214722
0.0216788
0.0217188
0.0215199
0.0215361
0.0219213
0.0219553
0.0218729
0.0219035
0.0219656
0.0219359
0.0219183
0.021903
0.0217482
0.0217764
0.0215458
0.0215672
0.0218012
0.0218121
0.021603
0.0216498
0.0217235
0.0216856
0.0216005
0.0216005
0.0217603
0.0216086
0.0213843
0.0214175
0.0210745
0.0211313
0.0213659
0.0210336
0.0217971
0.0216261
0.0218288
0.0216498
0.0213637
0.0210109
0.0213766
0.0210077
0.0206857
0.0207555
0.0202474
0.0203237
0.0206269
0.0201742
0.0197963
0.0198763
0.0193722
0.0194588
0.0197115
0.0192771
0.0205841
0.0201121
0.0205601
0.0200655
0.0196341
0.0191906
0.0195705
0.0191236
0.0218456
0.0216732
0.0218351
0.0216881
0.0214014
0.0210227
0.0214342
0.021054
0.0217854
0.0216884
0.0216869
0.0216798
0.0214761
0.0211058
0.0215525
0.0212133
0.020554
0.0200317
0.020563
0.0200028
0.0195159
0.0190692
0.0194544
0.0190021
0.0205869
0.0199652
0.0206501
0.0199102
0.0193541
0.0188737
0.0191701
0.0186164
0.021174
0.0212869
0.0213296
0.0212233
0.0212005
0.0211472
0.0213194
0.0212891
0.0210649
0.0209779
0.0209787
0.0209443
0.0208546
0.020624
0.020599
0.0204933
0.0207273
0.0205942
0.0203369
0.0201686
0.0212652
0.0212709
0.0209105
0.0208925
0.0213147
0.0214119
0.020948
0.0211443
0.0204835
0.020444
0.020022
0.0199807
0.0205425
0.0209651
0.0201862
0.0210169
0.0201647
0.0201664
0.0200677
0.0196632
0.0196945
0.0196205
0.0199039
0.0197157
0.01947
0.0192794
0.0191935
0.0192336
0.0191847
0.0185093
0.0187144
0.0187594
0.0190597
0.0188793
0.0186994
0.0185582
0.019542
0.0195037
0.0190837
0.0190056
0.0198076
0.0209985
0.0192202
0.020221
0.0186586
0.0184426
0.0183382
0.0179662
0.0182689
0.0181905
0.0173168
0.0159162
0.0215639
0.0217459
0.0215482
0.022161
0.021812
0.0215452
0.0226502
0.0225018
0.0219182
0.0234027
0.0228083
0.0252317
0.0245908
0.0244002
0.0265641
0.0254289
0.0208722
0.01985
0.0215232
0.019835
0.0187992
0.0180583
0.0180776
0.0168961
0.0226914
0.0198893
0.0228072
0.0197559
0.0169961
0.0149485
0.0166423
0.0138109
0.0231858
0.0248924
0.021407
0.0202641
0.024289
0.021735
0.0171855
0.0154388
0.0173049
0.0144387
0.0135148
0.0115096
0.0120753
0.0130048
0.0118529
0.0143093
0.0197479
0.0191815
0.0162591
0.0188458
0.018634
0.0167559
0.0214553
0.0223858
0.0158737
0.0192108
0.0171186
0.0197224
0.0225442
0.0254364
0.0223795
0.0253447
0.0190085
0.0191074
0.018728
0.018844
0.0189036
0.0186137
0.018546
0.0186771
0.0184698
0.0186058
0.0184245
0.0183457
0.0188162
0.0185315
0.0187631
0.018509
0.0183511
0.0182769
0.0183717
0.0183338
0.0185126
0.0186305
0.0186544
0.0187304
0.0183977
0.018562
0.0188649
0.0188781
0.0190219
0.0189984
0.0188221
0.0189873
0.0183245
0.0184691
0.0183798
0.0184459
0.0187311
0.0188667
0.0186207
0.0188331
0.018738
0.0185478
0.018706
0.0186011
0.0185066
0.0185739
0.0186944
0.0189346
0.0185994
0.0185724
0.0183382
0.0183736
0.0188044
0.0192289
0.0186971
0.0191985
0.0186849
0.0187395
0.0192249
0.0194034
0.0188668
0.019465
0.0194511
0.0200023
0.0197587
0.02017
0.0198045
0.0203274
0.0201524
0.0201825
0.020455
0.0203872
0.0191142
0.0190862
0.0192618
0.0192028
0.0190495
0.0192629
0.0194827
0.0193616
0.0198093
0.0195943
0.0196124
0.0200608
0.0188676
0.0192236
0.0190575
0.0198469
0.0198457
0.0204412
0.0209554
0.0215414
0.0201438
0.0198449
0.0204177
0.020075
0.0204779
0.0207805
0.0206393
0.0202863
0.0208089
0.0204687
0.020994
0.0211317
0.0208844
0.0211658
0.0216195
0.0216076
0.0213344
0.0214218
0.0216095
0.0216198
0.0203923
0.0213147
0.0209812
0.0215591
0.022141
0.0224888
0.0219417
0.0221571
0.0204424
0.0206679
0.0201487
0.020002
0.0207026
0.0204063
0.0193174
0.018255
0.0222656
0.0219383
0.021873
0.0215458
0.0217671
0.0217185
0.0215035
0.021574
0.0203927
0.0207088
0.0188657
0.0200846
0.0210311
0.0213208
0.0206949
0.0211297
0.0177504
0.0178768
0.0165179
0.0168927
0.0182626
0.018709
0.0175559
0.018102
0.0142709
0.0150816
0.0121508
0.0127788
0.0165035
0.0176321
0.0149935
0.0170721
0.0191216
0.0194752
0.0184029
0.0186433
0.0198274
0.0201695
0.0190941
0.0196133
0.0182318
0.0186387
0.0182508
0.0189153
0.0191078
0.0194764
0.0194385
0.0197802
0.0138739
0.0125153
0.0205213
0.0170918
0.0140584
0.0166572
0.0158822