# vtk DataFile Version 2.0
Gerris simulation version 1.3.2 (131206-155120)
ASCII
DATASET UNSTRUCTURED_GRID

POINTS 1089 float
-0.5 0.46875 0
-0.46875 0.46875 0
-0.5 0.5 0
-0.46875 0.5 0
-0.4375 0.46875 0
-0.4375 0.5 0
-0.5 0.4375 0
-0.46875 0.4375 0
-0.4375 0.4375 0
-0.40625 0.46875 0
-0.40625 0.5 0
-0.375 0.46875 0
-0.375 0.5 0
-0.40625 0.4375 0
-0.375 0.4375 0
-0.5 0.40625 0
-0.46875 0.40625 0
-0.4375 0.40625 0
-0.5 0.375 0
-0.46875 0.375 0
-0.4375 0.375 0
-0.40625 0.40625 0
-0.375 0.40625 0
-0.40625 0.375 0
-0.375 0.375 0
-0.34375 0.46875 0
-0.34375 0.5 0
-0.3125 0.46875 0
-0.3125 0.5 0
-0.34375 0.4375 0
-0.3125 0.4375 0
-0.28125 0.46875 0
-0.28125 0.5 0
-0.25 0.46875 0
-0.25 0.5 0
-0.28125 0.4375 0
-0.25 0.4375 0
-0.34375 0.40625 0
-0.3125 0.40625 0
-0.34375 0.375 0
-0.3125 0.375 0
-0.28125 0.40625 0
-0.25 0.40625 0
-0.28125 0.375 0
-0.25 0.375 0
-0.5 0.34375 0
-0.46875 0.34375 0
-0.4375 0.34375 0
-0.5 0.3125 0
-0.46875 0.3125 0
-0.4375 0.3125 0
-0.40625 0.34375 0
-0.375 0.34375 0
-0.40625 0.3125 0
-0.375 0.3125 0
-0.5 0.28125 0
-0.46875 0.28125 0
-0.4375 0.28125 0
-0.5 0.25 0
-0.46875 0.25 0
-0.4375 0.25 0
-0.40625 0.28125 0
-0.375 0.28125 0
-0.40625 0.25 0
-0.375 0.25 0
-0.34375 0.34375 0
-0.3125 0.34375 0
-0.34375 0.3125 0
-0.3125 0.3125 0
-0.28125 0.34375 0
-0.25 0.34375 0
-0.28125 0.3125 0
-0.25 0.3125 0
-0.34375 0.28125 0
-0.3125 0.28125 0
-0.34375 0.25 0
-0.3125 0.25 0
-0.28125 0.28125 0
-0.25 0.28125 0
-0.28125 0.25 0
-0.25 0.25 0
-0.21875 0.46875 0
-0.21875 0.5 0
-0.1875 0.46875 0
-0.1875 0.5 0
-0.21875 0.4375 0
-0.1875 0.4375 0
-0.15625 0.46875 0
-0.15625 0.5 0
-0.125 0.46875 0
-0.125 0.5 0
-0.15625 0.4375 0
-0.125 0.4375 0
-0.21875 0.40625 0
-0.1875 0.40625 0
-0.21875 0.375 0
-0.1875 0.375 0
-0.15625 0.40625 0
-0.125 0.40625 0
-0.15625 0.375 0
-0.125 0.375 0
-0.09375 0.46875 0
-0.09375 0.5 0
-0.0625 0.46875 0
-0.0625 0.5 0
-0.09375 0.4375 0
-0.0625 0.4375 0
-0.03125 0.46875 0
-0.03125 0.5 0
0 0.46875 0
0 0.5 0
-0.03125 0.4375 0
0 0.4375 0
-0.09375 0.40625 0
-0.0625 0.40625 0
-0.09375 0.375 0
-0.0625 0.375 0
-0.03125 0.40625 0
0 0.40625 0
-0.03125 0.375 0
0 0.375 0
-0.21875 0.34375 0
-0.1875 0.34375 0
-0.21875 0.3125 0
-0.1875 0.3125 0
-0.15625 0.34375 0
-0.125 0.34375 0
-0.15625 0.3125 0
-0.125 0.3125 0
-0.21875 0.28125 0
-0.1875 0.28125 0
-0.21875 0.25 0
-0.1875 0.25 0
-0.15625 0.28125 0
-0.125 0.28125 0
-0.15625 0.25 0
-0.125 0.25 0
-0.09375 0.34375 0
-0.0625 0.34375 0
-0.09375 0.3125 0
-0.0625 0.3125 0
-0.03125 0.34375 0
0 0.34375 0
-0.03125 0.3125 0
0 0.3125 0
-0.09375 0.28125 0
-0.0625 0.28125 0
-0.09375 0.25 0
-0.0625 0.25 0
-0.03125 0.28125 0
0 0.28125 0
-0.03125 0.25 0
0 0.25 0
-0.5 0.21875 0
-0.46875 0.21875 0
-0.4375 0.21875 0
-0.5 0.1875 0
-0.46875 0.1875 0
-0.4375 0.1875 0
-0.40625 0.21875 0
-0.375 0.21875 0
-0.40625 0.1875 0
-0.375 0.1875 0
-0.5 0.15625 0
-0.46875 0.15625 0
-0.4375 0.15625 0
-0.5 0.125 0
-0.46875 0.125 0
-0.4375 0.125 0
-0.40625 0.15625 0
-0.375 0.15625 0
-0.40625 0.125 0
-0.375 0.125 0
-0.34375 0.21875 0
-0.3125 0.21875 0
-0.34375 0.1875 0
-0.3125 0.1875 0
-0.28125 0.21875 0
-0.25 0.21875 0
-0.28125 0.1875 0
-0.25 0.1875 0
-0.34375 0.15625 0
-0.3125 0.15625 0
-0.34375 0.125 0
-0.3125 0.125 0
-0.28125 0.15625 0
-0.25 0.15625 0
-0.28125 0.125 0
-0.25 0.125 0
-0.5 0.09375 0
-0.46875 0.09375 0
-0.4375 0.09375 0
-0.5 0.0625 0
-0.46875 0.0625 0
-0.4375 0.0625 0
-0.40625 0.09375 0
-0.375 0.09375 0
-0.40625 0.0625 0
-0.375 0.0625 0
-0.5 0.03125 0
-0.46875 0.03125 0
-0.4375 0.03125 0
-0.5 0 0
-0.46875 0 0
-0.4375 0 0
-0.40625 0.03125 0
-0.375 0.03125 0
-0.40625 0 0
-0.375 0 0
-0.34375 0.09375 0
-0.3125 0.09375 0
-0.34375 0.0625 0
-0.3125 0.0625 0
-0.28125 0.09375 0
-0.25 0.09375 0
-0.28125 0.0625 0
-0.25 0.0625 0
-0.34375 0.03125 0
-0.3125 0.03125 0
-0.34375 0 0
-0.3125 0 0
-0.28125 0.03125 0
-0.25 0.03125 0
-0.28125 0 0
-0.25 0 0
-0.21875 0.21875 0
-0.1875 0.21875 0
-0.21875 0.1875 0
-0.1875 0.1875 0
-0.15625 0.21875 0
-0.125 0.21875 0
-0.15625 0.1875 0
-0.125 0.1875 0
-0.21875 0.15625 0
-0.1875 0.15625 0
-0.21875 0.125 0
-0.1875 0.125 0
-0.15625 0.15625 0
-0.125 0.15625 0
-0.15625 0.125 0
-0.125 0.125 0
-0.09375 0.21875 0
-0.0625 0.21875 0
-0.09375 0.1875 0
-0.0625 0.1875 0
-0.03125 0.21875 0
0 0.21875 0
-0.03125 0.1875 0
0 0.1875 0
-0.09375 0.15625 0
-0.0625 0.15625 0
-0.09375 0.125 0
-0.0625 0.125 0
-0.03125 0.15625 0
0 0.15625 0
-0.03125 0.125 0
0 0.125 0
-0.21875 0.09375 0
-0.1875 0.09375 0
-0.21875 0.0625 0
-0.1875 0.0625 0
-0.15625 0.09375 0
-0.125 0.09375 0
-0.15625 0.0625 0
-0.125 0.0625 0
-0.21875 0.03125 0
-0.1875 0.03125 0
-0.21875 0 0
-0.1875 0 0
-0.15625 0.03125 0
-0.125 0.03125 0
-0.15625 0 0
-0.125 0 0
-0.09375 0.09375 0
-0.0625 0.09375 0
-0.09375 0.0625 0
-0.0625 0.0625 0
-0.03125 0.09375 0
0 0.09375 0
-0.03125 0.0625 0
0 0.0625 0
-0.09375 0.03125 0
-0.0625 0.03125 0
-0.09375 0 0
-0.0625 0 0
-0.03125 0.03125 0
0 0.03125 0
-0.03125 0 0
0 0 0
0.03125 0.46875 0
0.03125 0.5 0
0.0625 0.46875 0
0.0625 0.5 0
0.03125 0.4375 0
0.0625 0.4375 0
0.09375 0.46875 0
0.09375 0.5 0
0.125 0.46875 0
0.125 0.5 0
0.09375 0.4375 0
0.125 0.4375 0
0.03125 0.40625 0
0.0625 0.40625 0
0.03125 0.375 0
0.0625 0.375 0
0.09375 0.40625 0
0.125 0.40625 0
0.09375 0.375 0
0.125 0.375 0
0.15625 0.46875 0
0.15625 0.5 0
0.1875 0.46875 0
0.1875 0.5 0
0.15625 0.4375 0
0.1875 0.4375 0
0.21875 0.46875 0
0.21875 0.5 0
0.25 0.46875 0
0.25 0.5 0
0.21875 0.4375 0
0.25 0.4375 0
0.15625 0.40625 0
0.1875 0.40625 0
0.15625 0.375 0
0.1875 0.375 0
0.21875 0.40625 0
0.25 0.40625 0
0.21875 0.375 0
0.25 0.375 0
0.03125 0.34375 0
0.0625 0.34375 0
0.03125 0.3125 0
0.0625 0.3125 0
0.09375 0.34375 0
0.125 0.34375 0
0.09375 0.3125 0
0.125 0.3125 0
0.03125 0.28125 0
0.0625 0.28125 0
0.03125 0.25 0
0.0625 0.25 0
0.09375 0.28125 0
0.125 0.28125 0
0.09375 0.25 0
0.125 0.25 0
0.15625 0.34375 0
0.1875 0.34375 0
0.15625 0.3125 0
0.1875 0.3125 0
0.21875 0.34375 0
0.25 0.34375 0
0.21875 0.3125 0
0.25 0.3125 0
0.15625 0.28125 0
0.1875 0.28125 0
0.15625 0.25 0
0.1875 0.25 0
0.21875 0.28125 0
0.25 0.28125 0
0.21875 0.25 0
0.25 0.25 0
0.28125 0.46875 0
0.28125 0.5 0
0.3125 0.46875 0
0.3125 0.5 0
0.28125 0.4375 0
0.3125 0.4375 0
0.34375 0.46875 0
0.34375 0.5 0
0.375 0.46875 0
0.375 0.5 0
0.34375 0.4375 0
0.375 0.4375 0
0.28125 0.40625 0
0.3125 0.40625 0
0.28125 0.375 0
0.3125 0.375 0
0.34375 0.40625 0
0.375 0.40625 0
0.34375 0.375 0
0.375 0.375 0
0.40625 0.46875 0
0.40625 0.5 0
0.4375 0.46875 0
0.4375 0.5 0
0.40625 0.4375 0
0.4375 0.4375 0
0.46875 0.46875 0
0.46875 0.5 0
0.5 0.46875 0
0.5 0.5 0
0.46875 0.4375 0
0.5 0.4375 0
0.40625 0.40625 0
0.4375 0.40625 0
0.40625 0.375 0
0.4375 0.375 0
0.46875 0.40625 0
0.5 0.40625 0
0.46875 0.375 0
0.5 0.375 0
0.28125 0.34375 0
0.3125 0.34375 0
0.28125 0.3125 0
0.3125 0.3125 0
0.34375 0.34375 0
0.375 0.34375 0
0.34375 0.3125 0
0.375 0.3125 0
0.28125 0.28125 0
0.3125 0.28125 0
0.28125 0.25 0
0.3125 0.25 0
0.34375 0.28125 0
0.375 0.28125 0
0.34375 0.25 0
0.375 0.25 0
0.40625 0.34375 0
0.4375 0.34375 0
0.40625 0.3125 0
0.4375 0.3125 0
0.46875 0.34375 0
0.5 0.34375 0
0.46875 0.3125 0
0.5 0.3125 0
0.40625 0.28125 0
0.4375 0.28125 0
0.40625 0.25 0
0.4375 0.25 0
0.46875 0.28125 0
0.5 0.28125 0
0.46875 0.25 0
0.5 0.25 0
0.03125 0.21875 0
0.0625 0.21875 0
0.03125 0.1875 0
0.0625 0.1875 0
0.09375 0.21875 0
0.125 0.21875 0
0.09375 0.1875 0
0.125 0.1875 0
0.03125 0.15625 0
0.0625 0.15625 0
0.03125 0.125 0
0.0625 0.125 0
0.09375 0.15625 0
0.125 0.15625 0
0.09375 0.125 0
0.125 0.125 0
0.15625 0.21875 0
0.1875 0.21875 0
0.15625 0.1875 0
0.1875 0.1875 0
0.21875 0.21875 0
0.25 0.21875 0
0.21875 0.1875 0
0.25 0.1875 0
0.15625 0.15625 0
0.1875 0.15625 0
0.15625 0.125 0
0.1875 0.125 0
0.21875 0.15625 0
0.25 0.15625 0
0.21875 0.125 0
0.25 0.125 0
0.03125 0.09375 0
0.0625 0.09375 0
0.03125 0.0625 0
0.0625 0.0625 0
0.09375 0.09375 0
0.125 0.09375 0
0.09375 0.0625 0
0.125 0.0625 0
0.03125 0.03125 0
0.0625 0.03125 0
0.03125 0 0
0.0625 0 0
0.09375 0.03125 0
0.125 0.03125 0
0.09375 0 0
0.125 0 0
0.15625 0.09375 0
0.1875 0.09375 0
0.15625 0.0625 0
0.1875 0.0625 0
0.21875 0.09375 0
0.25 0.09375 0
0.21875 0.0625 0
0.25 0.0625 0
0.15625 0.03125 0
0.1875 0.03125 0
0.15625 0 0
0.1875 0 0
0.21875 0.03125 0
0.25 0.03125 0
0.21875 0 0
0.25 0 0
0.28125 0.21875 0
0.3125 0.21875 0
0.28125 0.1875 0
0.3125 0.1875 0
0.34375 0.21875 0
0.375 0.21875 0
0.34375 0.1875 0
0.375 0.1875 0
0.28125 0.15625 0
0.3125 0.15625 0
0.28125 0.125 0
0.3125 0.125 0
0.34375 0.15625 0
0.375 0.15625 0
0.34375 0.125 0
0.375 0.125 0
0.40625 0.21875 0
0.4375 0.21875 0
0.40625 0.1875 0
0.4375 0.1875 0
0.46875 0.21875 0
0.5 0.21875 0
0.46875 0.1875 0
0.5 0.1875 0
0.40625 0.15625 0
0.4375 0.15625 0
0.40625 0.125 0
0.4375 0.125 0
0.46875 0.15625 0
0.5 0.15625 0
0.46875 0.125 0
0.5 0.125 0
0.28125 0.09375 0
0.3125 0.09375 0
0.28125 0.0625 0
0.3125 0.0625 0
0.34375 0.09375 0
0.375 0.09375 0
0.34375 0.0625 0
0.375 0.0625 0
0.28125 0.03125 0
0.3125 0.03125 0
0.28125 0 0
0.3125 0 0
0.34375 0.03125 0
0.375 0.03125 0
0.34375 0 0
0.375 0 0
0.40625 0.09375 0
0.4375 0.09375 0
0.40625 0.0625 0
0.4375 0.0625 0
0.46875 0.09375 0
0.5 0.09375 0
0.46875 0.0625 0
0.5 0.0625 0
0.40625 0.03125 0
0.4375 0.03125 0
0.40625 0 0
0.4375 0 0
0.46875 0.03125 0
0.5 0.03125 0
0.46875 0 0
0.5 0 0
-0.5 -0.03125 0
-0.46875 -0.03125 0
-0.4375 -0.03125 0
-0.5 -0.0625 0
-0.46875 -0.0625 0
-0.4375 -0.0625 0
-0.40625 -0.03125 0
-0.375 -0.03125 0
-0.40625 -0.0625 0
-0.375 -0.0625 0
-0.5 -0.09375 0
-0.46875 -0.09375 0
-0.4375 -0.09375 0
-0.5 -0.125 0
-0.46875 -0.125 0
-0.4375 -0.125 0
-0.40625 -0.09375 0
-0.375 -0.09375 0
-0.40625 -0.125 0
-0.375 -0.125 0
-0.34375 -0.03125 0
-0.3125 -0.03125 0
-0.34375 -0.0625 0
-0.3125 -0.0625 0
-0.28125 -0.03125 0
-0.25 -0.03125 0
-0.28125 -0.0625 0
-0.25 -0.0625 0
-0.34375 -0.09375 0
-0.3125 -0.09375 0
-0.34375 -0.125 0
-0.3125 -0.125 0
-0.28125 -0.09375 0
-0.25 -0.09375 0
-0.28125 -0.125 0
-0.25 -0.125 0
-0.5 -0.15625 0
-0.46875 -0.15625 0
-0.4375 -0.15625 0
-0.5 -0.1875 0
-0.46875 -0.1875 0
-0.4375 -0.1875 0
-0.40625 -0.15625 0
-0.375 -0.15625 0
[...]
POINT_DATA 1089
SCALARS T float
LOOKUP_TABLE default
0
0
0
0
0
0
0
0
0
0
0
0
0
0
0
0
0
0
0
0
0
0
0
0
0
0
0
0
0
0
0
0
0
0
0
0
0
0
0
0
0
0
0
0
0
0
0
0
0
0
0
0
0
0
0
0
0
0
0
0
0
0
0
0
0
0
0
0
0
0
0
0
0
0
0
0
0
0
0
0
0
0
0
0
0
0
0
0
0
0
0
0
0
0
0
0
0
0
0
0
0
0
0
0
0
0
0
0
0
0
0
0
0
0
0
0
0
0
0
0
0
0
0
0
0
0
0
0
0
0
0
0
0
0
0
0
0
0
0
0
0
0
0
0
0
0
0
0
0
0
0
0
0
0
0
0
0
0
0
0
0
0
0
0
0
0
0
0
0
0
0
0
0
0
0
0
0
0
0
0
0
0
0
0
0
0
0
0
0
0
0
0
0
0
0
0
0
0
0
0
0
0
0
0
0
0
0
0
0
0
0
0
0
0
0
0
0.0084012
0
0.0204874
0.0282107
0.263363
0.16856
0.396716
0.633225
0.888315
0
0
0
0
0
0
0
0
0
0
0
0
0
0
0
0
0
0
0
0
0
0
0
0
0
0
0
0
0
0
0
0
0
0
0.0635745
0.134951
0
0
0.153111
0.104405
0.553817
0.634951
0.990242
1
0.653111
0.604387
1
0.999982
0
0
0.0311025
3.07475e-05
0
0
0
0
0.474798
0.246045
0.943696
0.736032
0.0523
0
0.353812
0.0614942
0
0
0
0
0
0
0
0
0
0
0
0
0
0
0
0
0
0
0
0
0
0
0
0
0
0
0
0
0
0
0
0
0
0
0
0
0
0
0
0
0
0
0
0
0
0
0
0
0
0
0
0
0.0144283
0.169747
0.175796
0.581115
0
0
0
0.000299207
0
0
0.000299207
0
0.390844
0.460727
0.890844
0.960428
0.347278
0.124391
0.846978
0.486916
0
0
0
0
0
0
0
0
0
0
0
0
0
0
0
0
0
0
0
0
0
0
0
0
0
0
0
0
0
0
0
0
0
0
0
0
0
0
0
0
0
0
0
0
0
0
0
0
0.00231556
0
0.11484
0
0
0
0
0
0
0
0
0
0
0
0
0
0
0
0
0
0
0
0
0
0
3.67624e-05
0
3.67624e-05
0.398587
0.89855
0.44967
0.949633
0
0
0
0
0.290731
0.786804
0.0782803
0.366415
1
1
1
1
1
0.808595
1
0.87227
0.996073
1
0.660931
0.737651
0.985774
0.715485
0.629884
0.31854
0
0
0
0
0
0.0420624
0
0
0
0
0
0
0
0
0
0
0.164858
0.237651
0
0
0.14411
0.0292551
0
0
0
0
0
0
0
0
8.46197e-05
8.46197e-05
0.308595
0
0.37227
0
0
0
0
0
0.229711
0
0.0535109
0
0
0
0
0
0
0
0
0
0
0
0
0
0
0
0
0
0
0
0
0
0
0
0
0
0
0
0
0
0
0
0
0
0
0
0
0
0
0
0
0
0
0
0
0
0
0
0
0
0
0
0
0
0
0
0
0
0
0
0
0
0
0.0232196
0
0
0
0
0
0
0
0.0850493
0
0.111265
0.200833
0.665498
0.444302
0.921083
0.964665
1
1
1
0.583509
0.99846
0.611265
1
1
1
1
1
0
0
0
0
0
0
0
0.0546797
0
0.00524392
0
0
0
0
0
0
0
0
0
0
0.531179
0.9765
0.325976
0.820719
1
1
0.999987
1
0.0942409
0.446978
8.20262e-06
0.102759
0.844082
0.991344
0.367262
0.626103
1
1
1
1
1
1
1
1
1
1
1
1
1
1
1
1
1
0.990018
1
1
0.769508
0.286223
0.967996
0.548242
1
1
1
1
1
0.688123
1
0.716115
1
1
1
1
1
1
1
1
1
1
0.779772
0.859934
1
1
0.875598
0.825371
1
1
1
1
0.999107
0.636501
0.902508
0.438397
0.999997
0.912043
0.698326
0.468846
0.574099
0.162053
0.170698
0.00865112
0
0
0
0
0
0
0
0
0
0
0
0
0
0
0
0
0
0
0
0
0
0
0
0
0.0231665
0.134758
0
0
0
0
0
0
0
0
0
0
0
0
0
0
0
0
0
0
0
0
0
0
0
0
0
0
0
0
0
0
0
0
0
0
0
0
0
0
0
0
0
0
0
0
0
0
0.279772
0.359934
0
0
0.375598
0.325371
0
0
0
0
0
0
0
0
0
0
0.198329
0.0568026
0
0
2.67037e-08
0
0
0
0
0
0
0
0
0
0
0
0
0
0
0
0
0
0
0
0
0
0
0
0
0
0
0
0
0
0
0
0
0
0
0
0
0
0
0
0
0
0
0
0.00673337
0
0.0802459
0
0
0
0
0
0.188123
0
0.216115
0
0
5.51668e-05
0
0.0421281
0.00145322
0.055661
0.00488953
0.0632688
0.0550114
0.000803597
0.0727626
0.0144025
0.149586
0.393096
0.438222
0.885488
0.500389
0.368287
0.982553
0.806303
0.137394
0
0.0358886
0
0
0.0614479
0
0.0193749
0
0
0
0
0
0
0
0
0.555099
0.993651
0.306857
0.666447
1
0.863461
0.727088
0.521794
0.0438307
0.172796
0
0
0.227088
0.110033
0
0
0
0
1.92331e-05
0
0
0
0
0
0.111464
0
0.313144
0
0
0
0
0
0
0
0
0
0
0
0
0
0
0
0
0
0
0
0
0
0.363461
0
0.173671
0
0
0
0
0
0.0119101
0
0
0
0
0
0
0
0
0
0
0
0
0
0
0
0
0
0
0
0
0
0
0
0
0
0
0
0
0
0
0
0
0
0
0
0
0
0
0
0
0
0
0
0
0
0
0
0
0
0
0
0
0
0
0
0
0
0
0
0
0
0
0
0
0
0
0
0
0
0
0
0
0
0
0
0
0
0
0
0
0
0
0
0
0
0
0
0
0
0
0
0
0
0
0
0
0
0
0
0
0
0
0
0
0
0
0
0
0
0
0
0
0
0
0
0
0
0
0
0
0
0
0
0
0
0
0
0
0
0
0
0
0
0
0
0
0
0
0
0
0
0
0
0
0
0
0
0
0
0
0

SCALARS P float
LOOKUP_TABLE default
-0.00707137
-0.00702837
-0.00713788
-0.00709338
-0.00695118
-0.00701052
-0.00704145
-0.00699892
-0.00692543
-0.00684209
-0.00689014
-0.00670428
-0.0067339
-0.00682414
-0.00669914
-0.0070464
-0.00700208
-0.00692903
-0.00708534
-0.00703596
-0.00695927
-0.0068309
-0.00671237
-0.00685915
-0.00674049
-0.00654369
-0.00654647
-0.00636937
-0.00633693
-0.00655693
-0.00640622
-0.00619407
-0.00611949
-0.00603489
-0.0059167
-0.00625842
-0.00612725
-0.00658011
-0.00644258
-0.00660996
-0.00647596
-0.00631041
-0.00619559
-0.00634901
-0.00624077
-0.00715848
-0.00709988
-0.00701496
-0.00726549
-0.00719316
-0.00709545
-0.0069074
-0.00678186
-0.00697515
-0.00683609
-0.00740583
-0.00731552
-0.00720107
-0.00757588
-0.00746544
-0.00733229
-0.0070634
-0.00690462
-0.00717446
-0.00699101
-0.00664489
-0.00650495
-0.00668446
-0.00652874
-0.0063732
-0.00626219
-0.00638141
-0.0062572
-0.00673002
-0.00654775
-0.00678548
-0.00656464
-0.0063721
-0.00622146
-0.00634462
-0.00614929
-0.00591073
-0.00575583
-0.00583779
-0.00566192
-0.00602691
-0.00596883
-0.00582424
-0.00564855
-0.00586573
-0.00570982
-0.00595829
-0.00599159
-0.00611003
-0.00606291
-0.00616272
-0.00612365
-0.00605811
-0.00609222
-0.00612722
-0.00617028
-0.00594727
-0.00582372
-0.00604706
-0.00595911
-0.00605759
-0.00613941
-0.0061458
-0.0060896
-0.00622669
-0.00619531
-0.00622185
-0.00628914
-0.00615614
-0.00623526
-0.00624464
-0.00633593
-0.00631632
-0.0063823
-0.00643116
-0.00651023
-0.00618477
-0.00615115
-0.00617238
-0.00614077
-0.00616588
-0.0062262
-0.00616913
-0.00625505
-0.00611852
-0.00608389
-0.00601225
-0.00596572
-0.00612841
-0.00624995
-0.00602792
-0.0061963
-0.00632368
-0.00644281
-0.00638821
-0.00655058
-0.00657031
-0.00668292
-0.00672822
-0.00689541
-0.00643347
-0.00665744
-0.00644509
-0.00674615
-0.00690874
-0.00716596
-0.00708623
-0.00745875
-0.00777055
-0.0076412
-0.00749045
-0.00798364
-0.0078419
-0.00767916
-0.00731235
-0.00710135
-0.00748512
-0.00724776
-0.00820332
-0.00806385
-0.00790081
-0.00843727
-0.00831439
-0.00816581
-0.00770084
-0.00744478
-0.00797597
-0.00771827
-0.00685762
-0.00658483
-0.00696125
-0.0066228
-0.00629976
-0.00603367
-0.00624448
-0.0058679
-0.00711681
-0.00670355
-0.00736136
-0.00687485
-0.00619619
-0.00564775
-0.00619131
-0.00538346
-0.00868582
-0.00859404
-0.00847995
-0.00896489
-0.00891064
-0.00884865
-0.00832882
-0.00811241
-0.00876796
-0.00864729
-0.00925176
-0.00924659
-0.00926143
-0.00955164
-0.00958978
-0.00968693
-0.00930469
-0.00939166
-0.00988223
-0.0102555
-0.00778092
-0.00727557
-0.00841753
-0.00795807
-0.00635175
-0.00510147
-0.00670885
-0.00430422
-0.00950037
-0.00802847
-0.00906195
0.00588316
0.00194387
0.0161843
0.0289838
0.0429492
-0.00583793
-0.00576492
-0.0055734
-0.00544844
-0.00584725
-0.0060788
-0.005556
-0.00588048
-0.00518752
-0.00496655
-0.00464434
-0.00423897
-0.00511127
-0.00558584
-0.00445629
-0.00520411
-0.00641022
-0.00679727
-0.00632489
-0.00680934
-0.00721653
-0.0076771
-0.00728904
-0.00777474
-0.0062017
-0.00680999
-0.00610079
-0.00688327
-0.00733079
-0.00776379
-0.00743516
-0.00777204
-0.00386022
-0.00310827
0.000220795
0.00455991
-0.00344513
-0.00468675
0.00508501
0.00126444
0.0247174
0.0286456
0.0471548
0.046962
0.0297388
0.02759
0.0475056
0.0489616
-0.00609996
-0.00718412
-0.00455162
-0.00783377
-0.00777527
-0.00799345
-0.00842556
-0.00845163
0.0202917
0.00581381
0.0472987
0.0353834
-0.00645284
-0.00926699
0.0114003
-0.00646761
-0.00628117
-0.00626735
-0.00630513
-0.00630531
-0.0063317
-0.00634119
-0.00630081
-0.00631175
-0.00627836
-0.00630092
-0.00631698
-0.00626548
-0.00642128
-0.00641841
-0.00655725
-0.006547
-0.00636677
-0.00626726
-0.00645925
-0.00627743
-0.00625705
-0.00628912
-0.00625536
-0.00629431
-0.00621245
-0.00618554
-0.00629968
-0.00634102
-0.00638966
-0.00642956
-0.00622379
-0.00632414
-0.00615255
-0.00606864
-0.0060425
-0.0058698
-0.00609136
-0.00621903
-0.00589516
-0.0060891
-0.00676181
-0.00676865
-0.00703204
-0.00708256
-0.0066582
-0.00636357
-0.00696325
-0.00649364
-0.00742266
-0.00763577
-0.00789682
-0.00842132
-0.00593883
0.0131084
0.0128899
0.0620306
-0.00592147
-0.00556016
-0.00571068
-0.00507139
-0.00555566
-0.00587701
-0.00509691
-0.00569181
0.0397102
0.0475692
0.0983289
0.105276
0.0339428
0.00802851
0.0915345
0.0490876
-0.00651165
-0.00655147
-0.00664905
-0.00668987
-0.00646166
-0.0066134
-0.00678105
-0.0068259
-0.00689922
-0.00694872
-0.00675325
-0.00687575
-0.00639762
-0.00658524
-0.00634436
-0.00658687
-0.00674723
-0.00688299
-0.00677945
-0.00693183
-0.00699045
-0.00704573
-0.00705199
-0.00711236
-0.00696665
-0.00702631
-0.00707902
-0.0071434
-0.00707137
-0.00713739
-0.00705074
-0.00704145
-0.00697772
-0.00703705
-0.00702984
-0.00708706
-0.00705866
-0.0070464
-0.00710338
-0.00708534
-0.00628604
-0.00662273
-0.00633253
-0.0067666
-0.00685977
-0.00703127
-0.00703024
-0.00720288
-0.00633224
-0.00707679
0.00543645
-0.00774574
-0.00732578
-0.0074633
-0.0078113
-0.00782619
-0.00712939
-0.00717994
-0.0072864
-0.00731947
-0.00718651
-0.00715848
-0.00730897
-0.00726549
-0.00750796
-0.00750772
-0.00779176
-0.00773852
-0.00747081
-0.00740583
-0.00766651
-0.00757588
-0.00823535
-0.00895707
-0.00831915
-0.00899742
0.0398248
0.100719
0.0460584
0.106879
-0.0081303
-0.00848602
-0.00791296
-0.00791229
0.0270322
0.0866378
0.00189084
0.0365809
0.111908
0.11113
0.111923
0.111542
0.111177
0.0875361
0.11211
0.0965135
0.110727
0.110887
0.0712067
0.0799945
0.109838
0.0773889
0.067634
0.0300512
-0.00797481
-0.00782346
-0.00824159
-0.00795096
-0.00741165
-0.00179328
-0.00757881
-0.00714341
-0.00870866
-0.00820404
-0.00921032
-0.0084019
-0.00776661
-0.00735833
-0.00774843
-0.00709662
0.0128583
0.0215096
-0.00714587
-0.00702378
0.0104967
-0.00393045
-0.00718378
-0.0078982
-0.00766573
-0.00772029
-0.00768277
-0.0082709
-0.00763579
-0.00800854
-0.00833388
-0.00844556
0.027228
-0.00889809
0.0349981
-0.00989432
-0.00852071
-0.00828144
-0.0091676
-0.00870089
0.0179256
-0.00980868
-0.0026334
-0.00911903
-0.00925641
-0.00886756
-0.00901066
-0.0088801
-0.00812296
-0.0079992
-0.00844204
-0.00826127
-0.00788706
-0.00777055
-0.00811833
-0.00798364
-0.0086409
-0.00847247
-0.00876474
-0.00865531
-0.00833475
-0.00820332
-0.0085483
-0.00843727
-0.00836067
-0.0087433
-0.00843499
-0.00880938
-0.0088739
-0.00890857
-0.00897667
-0.00906325
-0.00844831
-0.0089231
-0.00868636
-0.00926213
-0.00911672
-0.00924124
-0.0094275
-0.00954136
-0.0088832
-0.00883312
-0.00907664
-0.00905638
-0.00876505
-0.00868582
-0.00901482
-0.00896489
-0.00928333
-0.00928426
-0.00957252
-0.00956114
-0.00926853
-0.00925176
-0.00954938
-0.00955164
-0.00981476
-0.00987964
-0.0100317
-0.0100394
-0.0101025
-0.010261
-0.0103302
-0.0109098
-0.010565
-0.00980187
-0.0101938
-0.0102455
-0.0103911
-0.0102803
-0.0103265
-0.010488
-0.0106603
-0.00595109
-0.0107977
-0.00438104
0.00138256
0.0312347
0.0172505
0.0482753
0.0497365
0.050475
0.0525793
0.0515315
0.0265261
0.0537804
0.028464
0.0541715
0.0529944
0.0522044
0.0532089
0.0524231
-0.0102518
-0.0103168
-0.0105289
-0.0100455
-0.0101481
-0.0103955
-0.0109519
-0.00830368
-0.0108814
-0.0114654
-0.00972512
-0.00983302
-0.0100453
-0.00932008
-0.00940333
-0.00952958
-0.0104386
-0.0111203
-0.00973119
-0.0100272
0.0231819
0.0527442
0.00944419
0.042136
0.0531651
0.0521772
0.0528376
0.0514468
-0.00555439
0.0176912
-0.0104283
-0.00343168
0.0426525
0.0498676
0.0140615
0.0293744
0.0495137
0.0490788
0.0508591
0.0505417
0.0493363
0.0501879
0.050648
0.0511318
0.0516296
0.0513271
0.051835
0.0515157
0.0513638
0.0517183
0.0515295
0.0518566
0.0512524
0.0515594
0.0517807
0.0524974
0.0374167
0.00693324
0.0506897
0.0234539
0.0522568
0.0529333
0.0523951
0.05309
0.0536619
0.0325717
0.0538413
0.0344172
0.05148
0.0511143
0.0504876
0.0500296
0.0511423
0.0515262
0.0501186
0.0506715
0.0488289
0.0481967
0.036827
0.0402122
0.0484044
0.049311
0.0411161
0.0393936
0.0521841
0.0530133
0.0516498
0.0528988
0.053717
0.0294043
0.0470393
0.0167007
0.0508502
0.0468913
0.0333315
0.0197023
0.0255149
-0.000694499
0.00062248
-0.00935169
-0.00890402
-0.00894958
-0.00898775
-0.00850128
-0.00851536
-0.00849025
-0.00901931
-0.00901615
-0.00841469
-0.00825501
-0.00814596
-0.00813363
-0.0080677
-0.00783994
-0.00781091
-0.00772422
-0.00793495
-0.00770833
-0.00756947
-0.00732834
-0.00892333
-0.00842053
-0.00795368
-0.0073489
-0.00550344
0.00279679
-0.00624836
-0.00455513
-0.00734441
-0.00677754
-0.00697382
-0.00648162
-0.00593833
-0.00482978
-0.00583424
-0.00508726
-0.00759022
-0.00755091
-0.00745658
-0.00739258
-0.00734869
-0.0072549
-0.00730069
-0.00707295
-0.00710801
-0.0069034
-0.00724319
-0.00719817
-0.00710912
-0.00713739
-0.00709338
-0.00701052
-0.00697536
-0.00679615
-0.00689014
-0.0067339
-0.00676073
-0.00636019
-0.00663768
-0.00631563
-0.00587573
-0.00535739
-0.00595036
-0.00558278
-0.00657342
-0.00631534
-0.00654647
-0.00633693
-0.00603683
-0.00576825
-0.00611949
-0.0059167
0.0117803
0.0160711
-0.00279286
-0.00185666
0.0166852
0.0136879
-0.0020836
-0.00329325
-0.00373167
-0.00311616
-0.00441647
-0.00405074
-0.00323523
-0.00400237
-0.00410679
-0.00453694
0.00565702
-0.00416139
-0.00501249
-0.00651608
-0.00852669
-0.00852122
-0.00730988
-0.00756704
-0.00508022
-0.00604648
-0.00517962
-0.00581445
-0.00665868
-0.00696261
-0.00628819
-0.00657812
-0.00490872
-0.00465685
-0.00527798
-0.00510609
-0.00467696
-0.00494406
-0.00510724
-0.0052667
-0.00555082
-0.0054257
-0.00575583
-0.00566192
-0.00541649
-0.00551429
-0.00564855
-0.00570982
-0.00535573
-0.00577913
-0.00552717
-0.00581115
-0.00612432
-0.00636072
-0.00606078
-0.00624642
-0.00568397
-0.00587744
-0.00582372
-0.00595911
-0.00605669
-0.00619728
-0.0060896
-0.00619531
-0.00935101
-0.0088
-0.00542248
-0.00883323
-0.00816568
-0.00721664
-0.00792067
-0.00600997
0.000475312
-0.0097681
0.00187761
-0.0108894
-0.00905054
-0.00662056
-0.0110444
-0.000327833
-0.00720382
0.00353824
-0.00578337
0.000772704
0.00337084
-0.00808766
0.00178165
-0.00610926
0.0231929
0.0608124
0.0779883
0.159066
0.0758272
0.0559709
0.173641
0.143051
-0.0028859
-0.0107662
-0.00877068
-0.0104503
-0.0112761
0.00101733
-0.0106689
-0.00826572
-0.0101005
-0.00963289
-0.00921233
-0.00877781
-0.00927952
-0.00921714
-0.00831245
-0.00777962
0.0976123
0.181085
0.0483187
0.115623
0.181588
0.160013
0.125192
0.0914053
5.45567e-05
0.0246981
-0.00627758
-0.00311925
0.0356568
0.0148144
-0.00111886
-0.00324111
-0.00889963
-0.00973596
-0.00880077
-0.0102873
-0.00980762
-0.00989142
-0.0103058
-0.0103412
0.00953679
-0.0114938
0.0475182
-0.0148855
-0.0110097
-0.0108504
-0.012682
-0.0116629
-0.00987434
-0.00982908
-0.0102283
-0.010113
-0.0098069
-0.00981476
-0.010052
-0.0100394
-0.0105626
-0.0103481
-0.0109765
-0.0105626
-0.0102344
-0.0101938
-0.0103586
-0.0102803
0.0595513
-0.0164878
0.0240758
-0.0126354
-0.0135531
-0.0119589
-0.0116069
-0.0109082
-0.00524497
-0.00910539
-0.00650523
-0.00798052
-0.00960747
-0.00976549
-0.0086453
-0.0089923
-0.011078
-0.0105714
-0.01047
-0.0101914
-0.0103329
-0.0102518
-0.010064
-0.0100455
-0.00975439
-0.00970755
-0.00913995
-0.00921105
-0.00969265
-0.00972512
-0.00926344
-0.00932008
-0.00830778
-0.00804966
-0.00757922
-0.00746286
-0.00766662
-0.00714
-0.00719134
-0.00678207
-0.00706451
-0.00703615
-0.0067141
-0.00674063
-0.00686711
-0.00659652
-0.00665335
-0.00649523
-0.00616115
-0.00453434
-0.00615796
-0.00530443
-0.00364275
-0.00466281
-0.00490825
-0.00542198
-0.00622408
-0.00578317
-0.00628477
-0.00605981
-0.00563642
-0.00593573
-0.00600989
-0.00619105
-0.00649071
-0.00653867
-0.00636065
-0.00641493
-0.00650267
-0.00642019
-0.00640956
-0.00637284
-0.00628995
-0.00633879
-0.00626735
-0.00630531
-0.00634577
-0.00633113
-0.00631175
-0.00630092
-0.00631086
-0.00621037
-0.00632178
-0.00628397
-0.00621932
-0.00635219
-0.00631514
-0.00642053
-0.00631058
-0.00630576
-0.00628912
-0.00629431
-0.00634947
-0.00644293
-0.00634102
-0.00642956
-0.00629799
-0.00732566
-0.00632012
-0.00704317
-0.00797431
-0.00839432
-0.00756823
-0.00795169
-0.00645424
-0.00694508
-0.00651558
-0.00686053
-0.00734397
-0.00765804
-0.00716697
-0.00742212
-0.00862701
-0.0087618
-0.00819786
-0.0083541
-0.00884642
-0.00890402
-0.00844999
-0.00850128
-0.00787758
-0.00802307
-0.00761204
-0.00774171
-0.0081097
-0.00814596
-0.00781648
-0.00783994
-0.00657396
-0.00682117
-0.00658582
-0.00677454
-0.00705386
-0.00725515
-0.00695888
-0.00712249
-0.00657813
-0.00673246
-0.00655147
-0.00668987
-0.00688512
-0.00702256
-0.0068259
-0.00694872
-0.00741102
-0.00751912
-0.00725196
-0.0073422
-0.00757873
-0.00759022
-0.00738945
-0.00739258
-0.00713204
-0.00720808
-0.00704573
-0.00711236
-0.00724566
-0.00724319
-0.0071434
-0.00713788

SCALARS U float
LOOKUP_TABLE default
0.0235536
0.0242899
0.0235627
0.0243669
0.0249581
0.0251532
0.0236196
0.0242797
0.0248529
0.0255229
0.0258642
0.0259301
0.0264355
0.0253079
0.0255988
0.0237704
0.0243637
0.0248655
0.0240145
0.0245495
0.025003
0.0252461
0.025464
0.025344
0.0255296
0.0261086
0.0267751
0.0259772
0.0267668
0.0256695
0.0254609
0.0254598
0.0262846
0.0245183
0.0252481
0.0249241
0.0240426
0.0254699
0.0252148
0.025509
0.0252327
0.024662
0.0238032
0.0246635
0.0237916
0.0243372
0.0248254
0.0252569
0.0246972
0.0251598
0.0256023
0.0255953
0.0257908
0.0259806
0.0262342
0.0250317
0.025502
0.0259962
0.0252728
0.0257867
0.0263733
0.0264631
0.02683
0.0269773
0.0275173
0.0257832
0.0255119
0.0262856
0.0260531
0.0249275
0.0240101
0.0254624
0.0244722
0.0269967
0.0268502
0.0278694
0.0278816
0.0262761
0.0251964
0.0273766
0.0262111
0.0231886
0.0236866
0.0215874
0.0217567
0.0228526
0.0214471
0.0198907
0.0197044
0.0182924
0.0178004
0.0199616
0.0185467
0.022673
0.0213517
0.022649
0.0213115
0.0199542
0.0186104
0.0198895
0.0185107
0.0169592
0.0162683
0.015994
0.0152265
0.0173365
0.0164263
0.0154217
0.0146733
0.015205
0.0145185
0.0158569
0.0156271
0.0174396
0.0165379
0.0172945
0.0163464
0.0159598
0.0157369
0.0157344
0.0155248
0.0227873
0.0213383
0.0231042
0.021449
0.0197843
0.0182687
0.0196561
0.0179063
0.023622
0.0216643
0.0243739
0.0220063
0.0195226
0.0174416
0.0193879
0.016864
0.0169267
0.015882
0.0163686
0.0151944
0.0152159
0.0150336
0.0144742
0.0143468
0.0156472
0.0143262
0.0147465
0.0132515
0.013564
0.0134901
0.0124196
0.0122314
0.0253444
0.0259312
0.0266389
0.0251805
0.0258407
0.0266697
0.0274183
0.0281932
0.0276456
0.0287308
0.0247515
0.0254277
0.0263371
0.0240064
0.0246074
0.0255406
0.0275209
0.0290414
0.0269681
0.0291426
0.0288266
0.0291201
0.0298029
0.0306036
0.0287918
0.0275776
0.0306577
0.0294731
0.0308393
0.0325421
0.0320961
0.035166
0.0332776
0.0321693
0.036771
0.0355823
0.0229087
0.0233367
0.0242379
0.0214217
0.0216042
0.0223962
0.0259628
0.0290112
0.0243418
0.0280863
0.0196314
0.0194617
0.0199343
0.0175859
0.0169364
0.0166894
0.021678
0.0252191
0.0173044
0.0188763
0.0334034
0.0377855
0.0332875
0.0373771
0.0396493
0.0376417
0.0375019
0.0338604
0.0296096
0.0316172
0.0201549
0.0190801
0.0295397
0.0256492
0.0160308
0.013931
0.0254222
0.0225116
0.0269119
0.0232322
0.0192504
0.0161363
0.0190496
0.0151148
0.029009
0.0242061
0.0314924
0.025217
0.0187008
0.0135903
0.0181181
0.0115912
0.0136127
0.0119319
0.0120809
0.0102854
0.0110493
0.0106338
0.00956853
0.0092938
0.00984167
0.00798852
0.0068987
0.00489336
0.00775615
0.00826067
0.00532619
0.00710319
0.0325022
0.0255589
0.0288598
0.0239705
0.0181425
0.0110776
0.0195005
0.0147816
0.0227067
0.0211327
0.0146567
0.0178331
0.020232
0.0191309
0.0218642
0.0254718
0.00542061
0.00264311
0.00953901
0.00535221
0.0031625
0.00609099
0.00424525
0.0068679
0.0168454
0.0132795
0.027405
0.0262562
0.0105845
0.0115005
0.0233489
0.0219728
0.0152626
0.0146364
0.0154961
0.0149073
0.0156891
0.015962
0.0157904
0.015227
0.0160277
0.0155183
0.0163174
0.0165698
0.0158536
0.0162585
0.0157402
0.016397
0.0168219
0.0172259
0.0174008
0.0181521
0.0161183
0.0157467
0.0161385
0.0159782
0.0165238
0.0162849
0.0162826
0.0163156
0.0166789
0.0168203
0.0162057
0.0165137
0.0170343
0.016416
0.0177353
0.0164722
0.0160471
0.0163137
0.0156404
0.0159197
0.0154089
0.0165194
0.0149343
0.016678
0.0183771
0.0197299
0.0195679
0.0212341
0.0141864
0.0162004
0.0125006
0.0133163
0.0191473
0.0205672
0.0139391
0.0140734
0.01865
0.0159297
0.0190317
0.014874
0.0142541
0.0147814
0.0125476
0.0134036
0.0196773
0.0183353
0.0165731
0.0214164
0.0173382
0.0177206
0.0253092
0.0278027
0.0173638
0.0175134
0.0182279
0.0183265
0.0172541
0.0182212
0.0191689
0.0192
0.0201263
0.0200956
0.0192488
0.0202659
0.0172298
0.0183864
0.0172443
0.0187666
0.0195178
0.0205786
0.0200334
0.0211082
0.0210496
0.0209805
0.0219313
0.0218511
0.0212112
0.0220859
0.0227653
0.0227049
0.0235536
0.0235279
0.0228866