# vtk DataFile Version 2.0
Gerris simulation version 1.3.2 (131206-155120)
ASCII
DATASET UNSTRUCTURED_GRID

POINTS 1089 float
-0.5 0.46875 0
-0.46875 0.46875 0
-0.5 0.5 0
-0.46875 0.5 0
-0.4375 0.46875 0
-0.4375 0.5 0
-0.5 0.4375 0
-0.46875 0.4375 0
-0.4375 0.4375 0
-0.40625 0.46875 0
-0.40625 0.5 0
-0.375 0.46875 0
-0.375 0.5 0
-0.40625 0.4375 0
-0.375 0.4375 0
-0.5 0.40625 0
-0.46875 0.40625 0
-0.4375 0.40625 0
-0.5 0.375 0
-0.46875 0.375 0
-0.4375 0.375 0
-0.40625 0.40625 0
-0.375 0.40625 0
-0.40625 0.375 0
-0.375 0.375 0
-0.34375 0.46875 0
-0.34375 0.5 0
-0.3125 0.46875 0
-0.3125 0.5 0
-0.34375 0.4375 0
-0.3125 0.4375 0
-0.28125 0.46875 0
-0.28125 0.5 0
-0.25 0.46875 0
-0.25 0.5 0
-0.28125 0.4375 0
-0.25 0.4375 0
-0.34375 0.40625 0
-0.3125 0.40625 0
-0.34375 0.375 0
-0.3125 0.375 0
-0.28125 0.40625 0
-0.25 0.40625 0
-0.28125 0.375 0
-0.25 0.375 0
-0.5 0.34375 0
-0.46875 0.34375 0
-0.4375 0.34375 0
-0.5 0.3125 0
-0.46875 0.3125 0
-0.4375 0.3125 0
-0.40625 0.34375 0
-0.375 0.34375 0
-0.40625 0.3125 0
-0.375 0.3125 0
-0.5 0.28125 0
-0.46875 0.28125 0
-0.4375 0.28125 0
-0.5 0.25 0
-0.46875 0.25 0
-0.4375 0.25 0
-0.40625 0.28125 0
-0.375 0.28125 0
-0.40625 0.25 0
-0.375 0.25 0
-0.34375 0.34375 0
-0.3125 0.34375 0
-0.34375 0.3125 0
-0.3125 0.3125 0
-0.28125 0.34375 0
-0.25 0.34375 0
-0.28125 0.3125 0
-0.25 0.3125 0
-0.34375 0.28125 0
-0.3125 0.28125 0
-0.34375 0.25 0
-0.3125 0.25 0
-0.28125 0.28125 0
-0.25 0.28125 0
-0.28125 0.25 0
-0.25 0.25 0
-0.21875 0.46875 0
-0.21875 0.5 0
-0.1875 0.46875 0
-0.1875 0.5 0
-0.21875 0.4375 0
-0.1875 0.4375 0
-0.15625 0.46875 0
-0.15625 0.5 0
-0.125 0.46875 0
-0.125 0.5 0
-0.15625 0.4375 0
-0.125 0.4375 0
-0.21875 0.40625 0
-0.1875 0.40625 0
-0.21875 0.375 0
-0.1875 0.375 0
-0.15625 0.40625 0
-0.125 0.40625 0
-0.15625 0.375 0
-0.125 0.375 0
-0.09375 0.46875 0
-0.09375 0.5 0
-0.0625 0.46875 0
-0.0625 0.5 0
-0.09375 0.4375 0
-0.0625 0.4375 0
-0.03125 0.46875 0
-0.03125 0.5 0
0 0.46875 0
0 0.5 0
-0.03125 0.4375 0
0 0.4375 0
-0.09375 0.40625 0
-0.0625 0.40625 0
-0.09375 0.375 0
-0.0625 0.375 0
-0.03125 0.40625 0
0 0.40625 0
-0.03125 0.375 0
0 0.375 0
-0.21875 0.34375 0
-0.1875 0.34375 0
-0.21875 0.3125 0
-0.1875 0.3125 0
-0.15625 0.34375 0
-0.125 0.34375 0
-0.15625 0.3125 0
-0.125 0.3125 0
-0.21875 0.28125 0
-0.1875 0.28125 0
-0.21875 0.25 0
-0.1875 0.25 0
-0.15625 0.28125 0
-0.125 0.28125 0
-0.15625 0.25 0
-0.125 0.25 0
-0.09375 0.34375 0
-0.0625 0.34375 0
-0.09375 0.3125 0
-0.0625 0.3125 0
-0.03125 0.34375 0
0 0.34375 0
-0.03125 0.3125 0
0 0.3125 0
-0.09375 0.28125 0
-0.0625 0.28125 0
-0.09375 0.25 0
-0.0625 0.25 0
-0.03125 0.28125 0
0 0.28125 0
-0.03125 0.25 0
0 0.25 0
-0.5 0.21875 0
-0.46875 0.21875 0
-0.4375 0.21875 0
-0.5 0.1875 0
-0.46875 0.1875 0
-0.4375 0.1875 0
-0.40625 0.21875 0
-0.375 0.21875 0
-0.40625 0.1875 0
-0.375 0.1875 0
-0.5 0.15625 0
-0.46875 0.15625 0
-0.4375 0.15625 0
-0.5 0.125 0
-0.46875 0.125 0
-0.4375 0.125 0
-0.40625 0.15625 0
-0.375 0.15625 0
-0.40625 0.125 0
-0.375 0.125 0
-0.34375 0.21875 0
-0.3125 0.21875 0
-0.34375 0.1875 0
-0.3125 0.1875 0
-0.28125 0.21875 0
-0.25 0.21875 0
-0.28125 0.1875 0
-0.25 0.1875 0
-0.34375 0.15625 0
-0.3125 0.15625 0
-0.34375 0.125 0
-0.3125 0.125 0
-0.28125 0.15625 0
-0.25 0.15625 0
-0.28125 0.125 0
-0.25 0.125 0
-0.5 0.09375 0
-0.46875 0.09375 0
-0.4375 0.09375 0
-0.5 0.0625 0
-0.46875 0.0625 0
-0.4375 0.0625 0
-0.40625 0.09375 0
-0.375 0.09375 0
-0.40625 0.0625 0
-0.375 0.0625 0
-0.5 0.03125 0
-0.46875 0.03125 0
-0.4375 0.03125 0
-0.5 0 0
-0.46875 0 0
-0.4375 0 0
-0.40625 0.03125 0
-0.375 0.03125 0
-0.40625 0 0
-0.375 0 0
-0.34375 0.09375 0
-0.3125 0.09375 0
-0.34375 0.0625 0
-0.3125 0.0625 0
-0.28125 0.09375 0
-0.25 0.09375 0
-0.28125 0.0625 0
-0.25 0.0625 0
-0.34375 0.03125 0
-0.3125 0.03125 0
-0.34375 0 0
-0.3125 0 0
-0.28125 0.03125 0
-0.25 0.03125 0
-0.28125 0 0
-0.25 0 0
-0.21875 0.21875 0
-0.1875 0.21875 0
-0.21875 0.1875 0
-0.1875 0.1875 0
-0.15625 0.21875 0
-0.125 0.21875 0
-0.15625 0.1875 0
-0.125 0.1875 0
-0.21875 0.15625 0
-0.1875 0.15625 0
-0.21875 0.125 0
-0.1875 0.125 0
-0.15625 0.15625 0
-0.125 0.15625 0
-0.15625 0.125 0
-0.125 0.125 0
-0.09375 0.21875 0
-0.0625 0.21875 0
-0.09375 0.1875 0
-0.0625 0.1875 0
-0.03125 0.21875 0
0 0.21875 0
-0.03125 0.1875 0
0 0.1875 0
-0.09375 0.15625 0
-0.0625 0.15625 0
-0.09375 0.125 0
-0.0625 0.125 0
-0.03125 0.15625 0
0 0.15625 0
-0.03125 0.125 0
0 0.125 0
-0.21875 0.09375 0
-0.1875 0.09375 0
-0.21875 0.0625 0
-0.1875 0.0625 0
-0.15625 0.09375 0
-0.125 0.09375 0
-0.15625 0.0625 0
-0.125 0.0625 0
-0.21875 0.03125 0
-0.1875 0.03125 0
-0.21875 0 0
-0.1875 0 0
-0.15625 0.03125 0
-0.125 0.03125 0
-0.15625 0 0
-0.125 0 0
-0.09375 0.09375 0
-0.0625 0.09375 0
-0.09375 0.0625 0
-0.0625 0.0625 0
-0.03125 0.09375 0
0 0.09375 0
-0.03125 0.0625 0
0 0.0625 0
-0.09375 0.03125 0
-0.0625 0.03125 0
-0.09375 0 0
-0.0625 0 0
-0.03125 0.03125 0
0 0.03125 0
-0.03125 0 0
0 0 0
0.03125 0.46875 0
0.03125 0.5 0
0.0625 0.46875 0
0.0625 0.5 0
0.03125 0.4375 0
0.0625 0.4375 0
0.09375 0.46875 0
0.09375 0.5 0
0.125 0.46875 0
0.125 0.5 0
0.09375 0.4375 0
0.125 0.4375 0
0.03125 0.40625 0
0.0625 0.40625 0
0.03125 0.375 0
0.0625 0.375 0
0.09375 0.40625 0
0.125 0.40625 0
0.09375 0.375 0
0.125 0.375 0
0.15625 0.46875 0
0.15625 0.5 0
0.1875 0.46875 0
0.1875 0.5 0
0.15625 0.4375 0
0.1875 0.4375 0
0.21875 0.46875 0
0.21875 0.5 0
0.25 0.46875 0
0.25 0.5 0
0.21875 0.4375 0
0.25 0.4375 0
0.15625 0.40625 0
0.1875 0.40625 0
0.15625 0.375 0
0.1875 0.375 0
0.21875 0.40625 0
0.25 0.40625 0
0.21875 0.375 0
0.25 0.375 0
0.03125 0.34375 0
0.0625 0.34375 0
0.03125 0.3125 0
0.0625 0.3125 0
0.09375 0.34375 0
0.125 0.34375 0
0.09375 0.3125 0
0.125 0.3125 0
0.03125 0.28125 0
0.0625 0.28125 0
0.03125 0.25 0
0.0625 0.25 0
0.09375 0.28125 0
0.125 0.28125 0
0.09375 0.25 0
0.125 0.25 0
0.15625 0.34375 0
0.1875 0.34375 0
0.15625 0.3125 0
0.1875 0.3125 0
0.21875 0.34375 0
0.25 0.34375 0
0.21875 0.3125 0
0.25 0.3125 0
0.15625 0.28125 0
0.1875 0.28125 0
0.15625 0.25 0
0.1875 0.25 0
0.21875 0.28125 0
0.25 0.28125 0
0.21875 0.25 0
0.25 0.25 0
0.28125 0.46875 0
0.28125 0.5 0
0.3125 0.46875 0
0.3125 0.5 0
0.28125 0.4375 0
0.3125 0.4375 0
0.34375 0.46875 0
0.34375 0.5 0
0.375 0.46875 0
0.375 0.5 0
0.34375 0.4375 0
0.375 0.4375 0
0.28125 0.40625 0
0.3125 0.40625 0
0.28125 0.375 0
0.3125 0.375 0
0.34375 0.40625 0
0.375 0.40625 0
0.34375 0.375 0
0.375 0.375 0
0.40625 0.46875 0
0.40625 0.5 0
0.4375 0.46875 0
0.4375 0.5 0
0.40625 0.4375 0
0.4375 0.4375 0
0.46875 0.46875 0
0.46875 0.5 0
0.5 0.46875 0
0.5 0.5 0
0.46875 0.4375 0
0.5 0.4375 0
0.40625 0.40625 0
0.4375 0.40625 0
0.40625 0.375 0
0.4375 0.375 0
0.46875 0.40625 0
0.5 0.40625 0
0.46875 0.375 0
0.5 0.375 0
0.28125 0.34375 0
0.3125 0.34375 0
0.28125 0.3125 0
0.3125 0.3125 0
0.34375 0.34375 0
0.375 0.34375 0
0.34375 0.3125 0
0.375 0.3125 0
0.28125 0.28125 0
0.3125 0.28125 0
0.28125 0.25 0
0.3125 0.25 0
0.34375 0.28125 0
0.375 0.28125 0
0.34375 0.25 0
0.375 0.25 0
0.40625 0.34375 0
0.4375 0.34375 0
0.40625 0.3125 0
0.4375 0.3125 0
0.46875 0.34375 0
0.5 0.34375 0
0.46875 0.3125 0
0.5 0.3125 0
0.40625 0.28125 0
0.4375 0.28125 0
0.40625 0.25 0
0.4375 0.25 0
0.46875 0.28125 0
0.5 0.28125 0
0.46875 0.25 0
0.5 0.25 0
0.03125 0.21875 0
0.0625 0.21875 0
0.03125 0.1875 0
0.0625 0.1875 0
0.09375 0.21875 0
0.125 0.21875 0
0.09375 0.1875 0
0.125 0.1875 0
0.03125 0.15625 0
0.0625 0.15625 0
0.03125 0.125 0
0.0625 0.125 0
0.09375 0.15625 0
0.125 0.15625 0
0.09375 0.125 0
0.125 0.125 0
0.15625 0.21875 0
0.1875 0.21875 0
0.15625 0.1875 0
0.1875 0.1875 0
0.21875 0.21875 0
0.25 0.21875 0
0.21875 0.1875 0
0.25 0.1875 0
0.15625 0.15625 0
0.1875 0.15625 0
0.15625 0.125 0
0.1875 0.125 0
0.21875 0.15625 0
0.25 0.15625 0
0.21875 0.125 0
0.25 0.125 0
0.03125 0.09375 0
0.0625 0.09375 0
0.03125 0.0625 0
0.0625 0.0625 0
0.09375 0.09375 0
0.125 0.09375 0
0.09375 0.0625 0
0.125 0.0625 0
0.03125 0.03125 0
0.0625 0.03125 0
0.03125 0 0
0.0625 0 0
0.09375 0.03125 0
0.125 0.03125 0
0.09375 0 0
0.125 0 0
0.15625 0.09375 0
0.1875 0.09375 0
0.15625 0.0625 0
0.1875 0.0625 0
0.21875 0.09375 0
0.25 0.09375 0
0.21875 0.0625 0
0.25 0.0625 0
0.15625 0.03125 0
0.1875 0.03125 0
0.15625 0 0
0.1875 0 0
0.21875 0.03125 0
0.25 0.03125 0
0.21875 0 0
0.25 0 0
0.28125 0.21875 0
0.3125 0.21875 0
0.28125 0.1875 0
0.3125 0.1875 0
0.34375 0.21875 0
0.375 0.21875 0
0.34375 0.1875 0
0.375 0.1875 0
0.28125 0.15625 0
0.3125 0.15625 0
0.28125 0.125 0
0.3125 0.125 0
0.34375 0.15625 0
0.375 0.15625 0
0.34375 0.125 0
0.375 0.125 0
0.40625 0.21875 0
0.4375 0.21875 0
0.40625 0.1875 0
0.4375 0.1875 0
0.46875 0.21875 0
0.5 0.21875 0
0.46875 0.1875 0
0.5 0.1875 0
0.40625 0.15625 0
0.4375 0.15625 0
0.40625 0.125 0
0.4375 0.125 0
0.46875 0.15625 0
0.5 0.15625 0
0.46875 0.125 0
0.5 0.125 0
0.28125 0.09375 0
0.3125 0.09375 0
0.28125 0.0625 0
0.3125 0.0625 0
0.34375 0.09375 0
0.375 0.09375 0
0.34375 0.0625 0
0.375 0.0625 0
0.28125 0.03125 0
0.3125 0.03125 0
0.28125 0 0
0.3125 0 0
0.34375 0.03125 0
0.375 0.03125 0
0.34375 0 0
0.375 0 0
0.40625 0.09375 0
0.4375 0.09375 0
0.40625 0.0625 0
0.4375 0.0625 0
0.46875 0.09375 0
0.5 0.09375 0
0.46875 0.0625 0
0.5 0.0625 0
0.40625 0.03125 0
0.4375 0.03125 0
0.40625 0 0
0.4375 0 0
0.46875 0.03125 0
0.5 0.03125 0
0.46875 0 0
0.5 0 0
-0.5 -0.03125 0
-0.46875 -0.03125 0
-0.4375 -0.03125 0
-0.5 -0.0625 0
-0.46875 -0.0625 0
-0.4375 -0.0625 0
-0.40625 -0.03125 0
-0.375 -0.03125 0
-0.40625 -0.0625 0
-0.375 -0.0625 0
-0.5 -0.09375 0
-0.46875 -0.09375 0
-0.4375 -0.09375 0
-0.5 -0.125 0
-0.46875 -0.125 0
-0.4375 -0.125 0
-0.40625 -0.09375 0
-0.375 -0.09375 0
-0.40625 -0.125 0
-0.375 -0.125 0
-0.34375 -0.03125 0
-0.3125 -0.03125 0
-0.34375 -0.0625 0
-0.3125 -0.0625 0
-0.28125 -0.03125 0
-0.25 -0.03125 0
-0.28125 -0.0625 0
-0.25 -0.0625 0
-0.34375 -0.09375 0
-0.3125 -0.09375 0
-0.34375 -0.125 0
-0.3125 -0.125 0
-0.28125 -0.09375 0
-0.25 -0.09375 0
-0.28125 -0.125 0
-0.25 -0.125 0
-0.5 -0.15625 0
-0.46875 -0.15625 0
-0.4375 -0.15625 0
-0.5 -0.1875 0
-0.46875 -0.1875 0
-0.4375 -0.1875 0
-0.40625 -0.15625 0
-0.375 -0.15625 0
[...]
POINT_DATA 1089
SCALARS T float
LOOKUP_TABLE default
0
0
0
0
0
0
0
0
0
0
0
0
0
0
0
0
0
0
0
0
0
0
0
0
0
0
0
0
0
0
0
0
0
0
0
0
0
0
0
0
0
0
0
0
0
0
0
0
0
0
0
0
0
0
0
0
0
0
0
0
0
0
0
0
0
0
0
0
0
0
0
0
0
0
0
0
0
0
0
0
0
0
0
0
0
0
0
0
0
0
0
0
0
0
0
0
0
0
0
0
0
0
0
0
0
0
0
0
0
0
0
0
0
0
0
0
0
0
0
0
0
0
0
0
0
0
0
0
0
0
0
0
0
0
0
0
0
0
0
0
0
0
0
0
0
0
0
0
0
0
0
0
0
0
0
0
0
0
0
0
0
0
0
0
0
0
0
0
0
0
0
0
0
0
0
0
0
0
0
0
0
0
0
0
0
0
0
0
0
0
0
0
0
0
0
0
0
0
0
0
0
0
0
0
0
0
0
0
0
0
0
0
0.000539395
0
0.0217822
0.123377
0.390332
0
0.11323
0.0217556
0.37355
0.486067
0.86855
0.851794
1
0
0
0
0
0
0
0
0
0
0
0
0
0
0
0
0
0
0
0
0
0
0
0
0
0
0
0
0
0
0
0
0
0.103762
0.159727
0.599474
0.659727
0.0945824
0.0168346
0.580646
0.349188
0.995712
1
1
1
0.986064
0.82966
1
0.997307
0
0
0.0962893
0
0
0
0
0
0.406694
0.0630983
0.754583
0.257276
0
0
0
0
0
0
0
0
0
0
0
0
0
0
0
0
0
0
0
0
0
0
0
0
0
0
0
0
0
0
0
0
0
0
0
0
0
0
0
0
0
0
0
0
0
0
0
0
0
0
0
0
0
0
0
0.0407046
0.0130148
0.0976203
0.279342
0.573243
0
0
0
0
0
0
0
0
0.182228
0.138997
0.682228
0.634922
0.0413928
1.77144e-05
0.416899
0.129625
0
0
0
0
0
0
0
0
0
0
0
0
0
0
0
0
0
0
0
0
0
0
0
0
0
0
0
0
0
0
0
0
0
0
0
0
0
0
0
0
0
0
0
0
0
0
0
0
0
0
2.54884e-05
0
0
0
0
0
0
0
0
0
0
0
0
0
0
0
0
0
0
0
0
0
0
0.199279
0
0.32935
0.674902
0.975623
0.82935
1
0
0.240548
0
0.0697725
0.739119
0.99857
0.386882
0.750617
1
0.995925
1
1
0.87476
0.416995
0.999254
0.605722
1
1
0.895645
0.873493
0.968794
0.550434
0.669942
0.271892
0
0
0
0
0.0685395
0.252047
0
0
0
0
0
0
0
0
0
0
0.395645
0.373493
0
0
0.201148
0.0397922
0
0
0
0
0
0
0
0
0
0
0.0381603
0
0.106469
0
0
0
0
0
0.0816398
0
0.0133058
0
0
0
0
0
0
0
0
0
0
0
0
0
0
0
0
0
0
0
0
0
0
0
0
0
0
0
0
0
0
0
0
0
0
0
0
0
0
0
0
0
0
0
0
0
0
0
0
0
0
0
0
0
0
0
0
0
0
0
0
0
0
0
0
0
0
0
0
0
0
0
0
0
0.126553
0.615656
0.265053
0.765053
0.989104
1
1
1
0.346539
0.846539
0.374718
0.874718
1
1
1
1
0
0
0
0
0
0
0
0
0
0
0
0
0
0
0
0
0
0
0
0
0.356077
0.856077
0.288596
0.788596
1
1
1
1
0.163049
0.662601
0.0420949
0.456885
0.999552
1
0.91479
1
1
1
1
1
1
1
1
1
1
1
1
1
1
1
1
1
0.943522
0.468269
0.999344
0.592446
0.0247466
0
0.093102
0
1
0.65726
1
0.676095
0.157261
0
0.176095
0
1
1
1
1
1
1
1
1
1
1
1
1
1
1
1
0.999289
1
0.650821
0.998637
0.580272
0.150821
0
0.081635
0
0.93885
0.456855
0.758117
0.258828
0.0180042
0
0
0
0
0
0
0
0
0
0
0
0
0
0
0
0
0
0
0
0
0
0
0
0
0.18361
0
0.0183718
0.619396
0.935786
0.205887
0.506288
0
0
0
0
0.00172965
0.0705019
0
0
0
0
0
0
0
0
0
0
0
0
0
0
0
0
0
0
0
0
0
0
0
0
0
0
0
0
0
0
0
0
0
0
0
0
0
0
1
1
0.690838
0.732008
0.994222
0.855295
0.639977
0.391819
0.190838
0.232008
0
0
0.145755
0.035812
0
0
0.429688
0.0686149
0.111784
0
0
0
0
0
0
0
0
0
0
0
0
0
0
0
0
0
0
0
0
0
0
0
0
0
0
0
0
0
0
0
0
0
0
0
0
0
0
0
0
0
0
0
0
0
0
0
0
0.0335951
0.0939795
0.289681
0.375566
0.787672
0
0.0828833
0
0.0511797
0.580875
0.997991
0.461159
0.906832
0.363419
0.183036
0.863419
0.524741
0.0153191
0
0.107024
0
1
0.768099
0.945971
0.637381
0.268099
0
0.188263
0
0
0.00189147
0
0
0.162079
0.422983
0.000208576
0.0161508
0
0
0
0
0
0
0
0
0.520194
0.269268
0.0742228
0.0582805
0.0118691
0
0
0
0
0
0
0
0
0
0
0
0
0
0
0
0
0
0
0
0
0
0
0
0
0
0
0
0
0
0
0
0
0
0
0
0
0
0
0
0
0
0
0
0
0
0
0
0
0
0
0
0
0
0
0
0
0
0
0
0
0
0
0
0
0
0
0
0
0
0
0
0
0
0
0
0
0
0
0
0
0
0
0
0
0
0
0
0
0
0
0
0
0
0
0
0
0
0
0
0
0
0
0
0
0
0
0
0
0
0
0
0
0
0
0
0
0
0
0
0
0
0
0
0
0
0
0
0
0
0
0
0
0
0
0
0
0
0
0
0
0
0
0
0
0
0
0
0
0
0
0
0
0
0
0
0
0
0
0
0
0
0
0
0
0
0
0
0
0
0
0
0
0
0
0
0
0
0
0
0
0
0
0
0
0
0
0
0
0
0
0
0
0
0
0
0
0
0
0
0
0
0
0

SCALARS P float
LOOKUP_TABLE default
-0.0093279
-0.00981384
-0.0091176
-0.00962466
-0.0103487
-0.0101968
-0.0094991
-0.00996143
-0.0104656
-0.0109233
-0.0108221
-0.0115245
-0.0114885
-0.0110014
-0.0115555
-0.00963205
-0.0100753
-0.010557
-0.00972965
-0.0101586
-0.0106265
-0.011067
-0.011592
-0.0111235
-0.0116371
-0.012135
-0.0121807
-0.012728
-0.0128685
-0.0121107
-0.0126432
-0.0132707
-0.0135115
-0.0137225
-0.0140535
-0.0131256
-0.0135266
-0.0121156
-0.0126161
-0.012151
-0.0126448
-0.0130694
-0.0134492
-0.0130959
-0.0134801
-0.00979168
-0.0102104
-0.0106731
-0.00981195
-0.0102246
-0.0106909
-0.0111703
-0.0116896
-0.0112011
-0.0117434
-0.00977948
-0.0101902
-0.010669
-0.00967678
-0.0100911
-0.0105918
-0.0112057
-0.011789
-0.0111687
-0.0118119
-0.0122148
-0.0127259
-0.0123014
-0.0128548
-0.0132003
-0.0136134
-0.0133794
-0.0138469
-0.0124028
-0.0130262
-0.0125069
-0.0132318
-0.0136315
-0.0141826
-0.0139544
-0.0146259
-0.0140437
-0.0144361
-0.0142059
-0.0146208
-0.0138164
-0.0139727
-0.0141914
-0.0145827
-0.014008
-0.0143409
-0.0139815
-0.0138435
-0.0137312
-0.0138958
-0.013775
-0.0139611
-0.0139305
-0.0138319
-0.0140262
-0.0139649
-0.0136721
-0.0139251
-0.0132057
-0.0133717
-0.0135667
-0.013163
-0.0126367
-0.0127274
-0.0119852
-0.0120199
-0.0126477
-0.012032
-0.0136031
-0.0132484
-0.0137782
-0.0134669
-0.0127748
-0.0121831
-0.013032
-0.0124636
-0.013941
-0.0141615
-0.0142278
-0.0144943
-0.0142617
-0.0142371
-0.0146323
-0.0146416
-0.0146392
-0.0149625
-0.0151877
-0.01558
-0.0151362
-0.0151703
-0.0157805
-0.0158185
-0.0140907
-0.0138247
-0.0145337
-0.0143204
-0.0134378
-0.01291
-0.0140044
-0.0135649
-0.0150927
-0.0149358
-0.015752
-0.0156551
-0.0147162
-0.0144274
-0.0155856
-0.015622
-0.00948054
-0.00990692
-0.0104401
-0.00916296
-0.00961457
-0.0101903
-0.0110711
-0.0117937
-0.010886
-0.011703
-0.00870749
-0.00919678
-0.00982092
-0.00811206
-0.00864071
-0.00930415
-0.0105856
-0.0115079
-0.0101245
-0.0111432
-0.0125966
-0.0134597
-0.0126401
-0.0136853
-0.0143468
-0.0151895
-0.014804
-0.0158975
-0.0126074
-0.0138865
-0.0124103
-0.0139586
-0.0153211
-0.0167659
-0.0158399
-0.0178643
-0.0073926
-0.00794712
-0.00862519
-0.00657844
-0.00712532
-0.00776973
-0.00947096
-0.0105572
-0.0085759
-0.00963994
-0.00569911
-0.00618991
-0.0067272
-0.00481548
-0.00520936
-0.00558258
-0.00738367
-0.00823783
-0.0060124
-0.00652316
-0.0119763
-0.0138507
-0.0110699
-0.0130994
-0.0163888
-0.0175098
-0.00742511
0.00968725
-0.009384
-0.00468571
-0.0061083
0.0115371
0.0171133
0.0431817
0.0382932
0.0487165
-0.015898
-0.0163732
-0.0168183
-0.0173952
-0.0165759
-0.0165706
-0.0175522
-0.0174166
-0.0179896
-0.0187063
-0.0196036
-0.0205479
-0.018755
-0.0183921
-0.0203763
-0.0196168
-0.0164617
-0.0163736
-0.0171508
-0.0169064
-0.0164243
-0.016832
-0.0168386
-0.0171692
-0.0178456
-0.0172521
-0.0186272
-0.0175185
-0.0167969
-0.0165344
-0.0165774
-0.0156699
-0.0129331
-0.00937166
0.0250517
0.0295723
-0.0146937
-0.019975
0.0225296
0.00421572
0.0534034
0.0538161
0.0495503
0.0494653
0.051728
0.038105
0.0483909
0.0463185
-0.0195737
-0.0177694
-0.0132937
-0.0178471
-0.0163953
-0.0151288
-0.0161625
-0.0149001
0.00794224
-0.0130897
0.0287031
-0.000669296
-0.0153898
-0.0147511
-0.0140608
-0.0146453
-0.0112707
-0.0112718
-0.0105166
-0.0105078
-0.0113291
-0.0105555
-0.00975208
-0.00975218
-0.0090286
-0.00904692
-0.00974051
-0.00894751
-0.0114755
-0.0106522
-0.0117444
-0.0108424
-0.00973224
-0.00879038
-0.0097459
-0.00853083
-0.00840033
-0.0084291
-0.00793114
-0.00794413
-0.00826181
-0.00778559
-0.00764045
-0.00760974
-0.00750441
-0.00741428
-0.00754727
-0.00749496
-0.00797257
-0.00745653
-0.00746199
-0.00686034
-0.00729737
-0.00738049
-0.00684367
-0.007162
-0.0121938
-0.0112075
-0.0129151
-0.0118982
-0.00985502
-0.00816466
-0.010172
-0.00760608
-0.0139396
-0.0130215
-0.0157333
-0.0102637
-0.00931304
0.00321478
0.0215303
0.0581047
-0.00663242
-0.00586072
-0.00519211
-0.00411371
-0.00611439
-0.0068544
-0.00496646
-0.00654432
0.0147418
0.0115041
0.0692578
0.064319
0.000444919
-0.00629632
0.0410534
0.00733278
-0.00748839
-0.00734256
-0.0075619
-0.00737115
-0.00755607
-0.00768979
-0.00771177
-0.00748905
-0.00792275
-0.00768176
-0.00788118
-0.00811484
-0.00755379
-0.00776847
-0.00749895
-0.00781764
-0.00801108
-0.00826967
-0.00811768
-0.00839877
-0.0081924
-0.00794425
-0.00851655
-0.00827094
-0.00839334
-0.00871523
-0.00889536
-0.00866038
-0.0093279
-0.0091055
-0.00908375
-0.0094991
-0.00855622
-0.00887435
-0.00868846
-0.00899865
-0.00923219
-0.00963205
-0.009344
-0.00972965
-0.00742837
-0.00787309
-0.00746519
-0.00801826
-0.00822832
-0.00851984
-0.00838972
-0.00865393
-0.00771334
-0.00831441
-0.00900705
-0.00909684
-0.00862932
-0.00880729
-0.00905006
-0.00899717
-0.00879986
-0.00909262
-0.00889646
-0.00915472
-0.00942049
-0.00979168
-0.0094567
-0.00981195
-0.00897349
-0.00917565
-0.00901858
-0.00913592
-0.00944184
-0.00977948
-0.00935672
-0.00967678
-0.0177368
0.00883472
-0.0181021
0.0261818
0.0709295
0.106768
0.0915456
0.110566
-0.0165648
0.0155251
-0.0146547
-0.00412749
0.0784105
0.108499
0.0360919
0.0787343
0.106716
0.10583
0.108998
0.109994
0.0950109
0.0406522
0.114476
0.0654682
0.108439
0.110469
0.0951069
0.0948177
0.111199
0.0594094
0.0739297
0.0256381
-0.0136184
-0.0112783
-0.0134619
-0.0114419
9.6645e-05
0.0233525
-0.00830784
-0.00461602
-0.0139746
-0.0127807
-0.0151112
-0.0152793
-0.0103825
-0.00679683
-0.0141334
-0.0107937
0.0407692
0.0397929
-0.0015284
9.53694e-06
0.0199865
-0.000129716
-0.000627457
-0.00198446
-0.0021671
0.00119108
-0.00209304
0.00480598
0.00162818
0.000667952
0.00480428
0.00320502
-0.0067969
-0.0102898
0.000631741
-0.010981
-0.0095466
-0.00913639
-0.00965742
-0.00898139
-0.00123284
-0.0100792
-0.0071417
-0.00794155
-0.00891344
-0.00833494
-0.00745801
-0.00725472
-0.00896961
-0.00899246
-0.00869783
-0.00867527
-0.00917095
-0.00948054
-0.00884356
-0.00916296
-0.0081159
-0.00814339
-0.00725202
-0.00741171
-0.00835211
-0.00870749
-0.00770291
-0.00811206
-0.00552916
-0.00565535
-0.00285766
-0.00356509
-0.0057849
-0.00596972
-0.00415481
-0.00466862
-0.0006327
-0.00172921
0.00128428
-0.000147036
-0.00265581
-0.00342892
-0.00134165
-0.00231901
-0.00622052
-0.00654098
-0.00514593
-0.005612
-0.00692941
-0.0073926
-0.00608282
-0.00657844
-0.004092
-0.00467642
-0.00312714
-0.00379815
-0.00520406
-0.00569911
-0.00435333
-0.00481548
-0.00398216
-0.0042459
-0.00441163
-0.00327504
-0.0033808
-0.00329695
-0.00454843
-0.00464094
-0.00303994
-0.00258426
-0.00277539
-0.00274019
-0.0024288
-0.00257723
-0.00245892
-0.00202782
-0.00179418
-0.000796108
-0.00121839
6.18369e-05
0.00095562
0.0243132
0.00876922
0.0304086
0.0435688
0.0456047
0.0418317
0.0431969
0.0129998
0.0326898
0.014416
0.0332202
0.0401148
0.0416268
0.039458
0.0410678
-0.00270611
-0.00258674
-0.0021821
-0.00312646
-0.00308594
-0.00283471
-0.0014497
-0.000239608
-0.00236996
-0.00153475
-0.00378118
-0.00387608
-0.00385935
-0.0045748
-0.00483292
-0.00507894
-0.00376911
-0.00349044
-0.00538408
-0.00573169
0.0136787
0.0328471
0.0104684
0.0311301
0.0398863
0.0415126
0.0413588
0.0429478
0.00382581
0.0267579
-0.00414802
0.0168524
0.0437462
0.0454058
0.0423697
0.0490122
0.0462428
0.0459992
0.0437819
0.0434215
0.0447838
0.0426652
0.0420035
0.0395101
0.0422566
0.0418409
0.0417217
0.0412952
0.0403046
0.0375376
0.039724
0.0369074
0.0361921
0.0107265
0.0358347
0.0155641
-0.0115615
-0.0146342
-0.00749404
-0.0143242
0.0335963
0.0171843
0.0329044
0.0177795
-0.00417354
-0.0138171
-0.0027583
-0.0129482
0.0421826
0.0417816
0.0436171
0.0432764
0.0402414
0.0375082
0.0418165
0.0392472
0.0460454
0.0458199
0.0495171
0.0494035
0.0445857
0.0423901
0.0485487
0.0470073
0.0335396
0.0175491
0.0352224
0.0160954
-0.00283231
-0.0115942
-0.00480289
-0.01053
0.035567
0.0119936
0.0300614
0.001864
-0.00779015
-0.0103418
-0.0106346
-0.0110797
-0.00541515
-0.00582096
-0.00629397
-0.00621925
-0.00673365
-0.00735984
-0.00692287
-0.00779302
-0.00818253
-0.00930821
-0.00694246
-0.00751693
-0.00821575
-0.00756148
-0.00815653
-0.00886951
-0.00910266
-0.0102509
-0.00974091
-0.0108089
-0.00899958
-0.000189132
-0.0108596
-0.0121628
0.0265842
0.0488239
-0.00165857
0.0190347
-0.0117579
-0.0138877
-0.0121254
-0.013765
-0.0164773
-0.0133367
-0.0156619
-0.0174549
-0.00807885
-0.0086689
-0.00936329
-0.00850025
-0.00906956
-0.00972671
-0.0101842
-0.0111464
-0.0104803
-0.0113304
-0.00884032
-0.00938235
-0.00999667
-0.0091055
-0.00962466
-0.0101968
-0.0106829
-0.0114331
-0.0108221
-0.0114885
-0.0122692
-0.0135516
-0.0122771
-0.013295
-0.0149159
-0.0161594
-0.0143203
-0.0152279
-0.0122365
-0.0130616
-0.0121807
-0.0128685
-0.0138568
-0.0145408
-0.0135115
-0.0140535
0.0537834
0.0536727
0.0328967
0.0359003
0.0528727
0.0415192
0.0283157
0.00915083
-0.00497523
-0.00218181
-0.0186978
-0.0192057
-0.00908298
-0.0169206
-0.0188833
-0.0179576
0.0115718
-0.0104148
-0.0102015
-0.0155797
-0.0126952
-0.0119178
-0.0135715
-0.0123369
-0.0176718
-0.015415
-0.01657
-0.0149924
-0.0137523
-0.012478
-0.0136454
-0.0124754
-0.0170335
-0.0174245
-0.0158677
-0.01616
-0.0172388
-0.0166043
-0.0160469
-0.0156016
-0.0150235
-0.0152505
-0.0144361
-0.0146208
-0.0151832
-0.0148603
-0.0145827
-0.0143409
-0.0156405
-0.0144947
-0.0149009
-0.0140358
-0.0134034
-0.0123751
-0.0131401
-0.0122435
-0.0143311
-0.0136527
-0.0139251
-0.0133717
-0.012903
-0.0121146
-0.0127274
-0.0120199
-0.0168252
-0.0190431
-0.018404
-0.0162715
-0.00283123
0.0308231
0.041936
0.107213
-0.0192307
-0.00925701
-0.0182547
-0.0143032
0.0740854
0.136194
0.0532076
0.121319
0.0419201
0.0246459
0.102356
0.0574469
0.00997833
0.00572694
0.0179169
0.00614855
0.115697
0.0747576
0.110906
0.0588809
0.0295034
0.0111494
0.0176966
0.00936956
-0.0155165
-0.0188245
-0.0129377
-0.0145384
0.00713812
0.0501974
-0.0144737
-0.00892427
-0.0114969
-0.0119423
-0.0110893
-0.010768
-0.0108654
-0.00800825
-0.0094599
-0.0074003
0.0550711
0.0209081
-0.00066859
0.000451736
-0.000572116
0.00188814
-0.000481648
0.00102839
-0.00240593
-0.000151146
-0.00379583
-0.00185603
-0.00117563
-0.000564516
-0.00213852
-0.00181788
0.00317092
0.00136388
0.00429485
0.00240531
-0.000134731
-0.00132636
0.000728727
-0.00060449
0.00723721
0.00385589
0.00613084
0.0032292
0.0015734
-4.98362e-05
0.00130835
-0.000140998
-0.00227248
-0.00301483
-0.00163483
-0.00240992
-0.00357738
-0.00398216
-0.00295153
-0.00327504
-0.00119986
-0.00200948
-0.00118901
-0.00193242
-0.00252829
-0.00277539
-0.00239438
-0.00257723
0.00202962
0.00118976
0.000836943
0.00015901
0.000218658
-0.000749349
-0.000627099
-0.00140314
-0.000791786
-0.00118635
-0.00202451
-0.00228577
-0.00169219
-0.00224242
-0.00265354
-0.00307279
-0.00154916
-0.00216139
-0.00206678
-0.00259497
-0.00255482
-0.00270611
-0.00295627
-0.00312646
-0.00275947
-0.00320847
-0.00350051
-0.00390697
-0.0035563
-0.00378118
-0.00426883
-0.0045748
-0.0111359
-0.0103404
-0.0112724
-0.0102879
-0.00903878
-0.00748226
-0.00907737
-0.00780012
-0.0113638
-0.0103381
-0.011411
-0.0104186
-0.00923524
-0.00815083
-0.00941888
-0.00846977
-0.00530177
-0.00387273
-0.00628516
-0.00516967
-0.0035915
-0.00320955
-0.00469919
-0.00430765
-0.00701872
-0.00612748
-0.0075515
-0.00680383
-0.0056124
-0.00523005
-0.00630375
-0.00594761
-0.0113998
-0.0104731
-0.0113599
-0.0105024
-0.00956598
-0.00871939
-0.00966984
-0.0088977
-0.0113094
-0.0105092
-0.0112718
-0.0105078
-0.00972878
-0.00900486
-0.00975218
-0.00904692
-0.00793712
-0.0072929
-0.00820236
-0.00763105
-0.00683115
-0.00650914
-0.00721206
-0.0069277
-0.00836342
-0.00784448
-0.0084291
-0.00794413
-0.00746848
-0.00722575
-0.00760974
-0.00741428
-0.00323337
-0.00335233
-0.00422778
-0.00426547
-0.00359633
-0.0039114
-0.00443334
-0.00468518
-0.00508783
-0.00507376
-0.00578367
-0.00574777
-0.00518902
-0.00539752
-0.00583591
-0.00602093
-0.0042701
-0.00464788
-0.00500259
-0.00536701
-0.0050302
-0.00541515
-0.00577111
-0.00621925
-0.00568581
-0.00604005
-0.00629232
-0.00663953
-0.00645683
-0.00694246
-0.00706077
-0.00756148
-0.00634748
-0.00630855
-0.00678435
-0.00675695
-0.00638614
-0.00655984
-0.00683784
-0.00701062
-0.00711263
-0.00710795
-0.00734256
-0.00737115
-0.00720265
-0.00738212
-0.00748905
-0.00768176
-0.00682107
-0.00716149
-0.00726793
-0.00760267
-0.00757959
-0.00807885
-0.00801299
-0.00850025
-0.00764004
-0.00797007
-0.00794425
-0.00827094
-0.00837023
-0.00884032
-0.00866038
-0.0091176

SCALARS U float
LOOKUP_TABLE default
0.0195604
0.0196268
0.0193663
0.0194164
0.0196964
0.0194618
0.0197557
0.0198273
0.019899
0.0197834
0.0195263
0.0199042
0.0196339
0.0199836
0.0200921
0.0199678
0.020027
0.020086
0.0202006
0.0202291
0.0202631
0.0201556
0.020243
0.0203106
0.0203751
0.0200658
0.0197993
0.0202748
0.0200484
0.0202278
0.0203902
0.0205223
0.0203818
0.020776
0.020751
0.0205693
0.0207438
0.0203488
0.0204688
0.0204537
0.020539
0.0205931
0.020707
0.0206194
0.0206825
0.0204477
0.0204289
0.0204287
0.0206929
0.0206138
0.0205739
0.0204508
0.0204943
0.0205709
0.0205988
0.0209008
0.0207594
0.0206804
0.0210321
0.0208355
0.0207196
0.0206558
0.0206747
0.0206724
0.02068
0.0205522
0.0206122
0.0206454
0.0206922
0.0206586
0.0206764
0.0207162
0.0206948
0.0207203
0.0207679
0.0207239
0.0207801
0.020785
0.0207361
0.0208115
0.020764
0.0210037
0.0211004
0.0211712
0.021357
0.0208956
0.0210094
0.021286
0.0215304
0.0213666
0.0216499
0.021092
0.0211576
0.0208
0.0208672
0.0207206
0.0207358
0.0209168
0.020963
0.0207388
0.0207456
0.0214057
0.0216823
0.0214042
0.0216195
0.0212104
0.0212583
0.0213692
0.0214803
0.0213032
0.0212822
0.0213064
0.0213568
0.0210151
0.0210882
0.0207672
0.0208251
0.0211916
0.0213428
0.0209371
0.02116
0.0206576
0.0206094
0.020615
0.0204904
0.0205472
0.0204897
0.0203466
0.0202087
0.0205964
0.0203903
0.0205885
0.0203221
0.0201642
0.0199572
0.0200465
0.01982
0.0204478
0.0204478
0.0200904
0.0200235
0.0205235
0.0208077
0.0200723
0.0204691
0.0197948
0.0197081
0.0196844
0.0196479
0.0197931
0.0202991
0.019834
0.0203656
0.0210495
0.0208063
0.0206447
0.0209282
0.0206279
0.0203741
0.02055
0.0205073
0.020144
0.0199247
0.0206594
0.0202526
0.0197929
0.0202588
0.0196379
0.0187769
0.0192371
0.0185848
0.0176035
0.0161937
0.0205072
0.0205506
0.0197438
0.0196975
0.0206194
0.0206417
0.0198607
0.0201376
0.0179783
0.0177887
0.0150281
0.0151646
0.0183193
0.0193224
0.0172086
0.019862
0.019795
0.018841
0.0173948
0.0193703
0.0180662
0.0160413
0.0154053
0.0132102
0.0133856
0.0108584
0.019254
0.0178297
0.0156519
0.0197596
0.0187635
0.0173128
0.0130321
0.0110743
0.0158449
0.0154085
0.0120215
0.0137764
0.0104214
0.013378
0.0182471
0.0217264
0.0164888
0.0165905
0.0114472
0.0126699
0.0162149
0.0148447
0.0107144
0.00847757
0.0109156
0.0108925
0.0205203
0.0202968
0.020301
0.0203543
0.0200875
0.0199487
0.0204563
0.0206316
0.020107
0.0205365
0.0210559
0.0207822
0.0211067
0.0219939
0.0209076
0.0225689
0.0199048
0.0198853
0.0207987
0.0207094
0.0199636
0.0199485
0.0202759
0.0190732
0.0228073
0.0228793
0.0249531
0.0262117
0.021986
0.0199909
0.0255568
0.0235356
0.021984
0.0208065
0.0169333
0.0204207
0.0202576
0.0215087
0.0235597
0.0236871
0.0121648
0.0205155
0.0156965
0.0207221
0.0280523
0.0303989
0.0256767
0.0297397
0.0249711
0.0284948
0.0243699
0.027961
0.0294319
0.0280611
0.0311023
0.031488
0.027716
0.0265508
0.0281003
0.0241758
0.0295467
0.0323362
0.0254493
0.0299483
0.0211954
0.0210438
0.0209986
0.0207472
0.0213834
0.0213126
0.0206628
0.0203739
0.0201041
0.0198928
0.0210483
0.0203891
0.0215183
0.0216461
0.0215141
0.0220148
0.0215609
0.0208062
0.0223379
0.0214823
0.0193879
0.0193499
0.0187286
0.018879
0.0194226
0.0185109
0.0182818
0.0185495
0.0181544
0.0184233
0.0179254
0.0178356
0.0194941
0.0182555
0.0196442
0.0179663
0.0175263
0.0175539
0.0171048
0.0173945
0.0214413
0.0226614
0.0215306
0.0236117
0.0236525
0.0224333
0.0247695
0.022224
0.0215958
0.0235793
0.0216665
0.0234282
0.0236556
0.0202771
0.0245409
0.0248295
0.0197084
0.0175795
0.0185663
0.0170804
0.0166976
0.0173751
0.0170492
0.0179906
0.0179375
0.0194153
0.0255055
0.0264533
0.0214652
0.0216912
0.0269972
0.0262833
0.0182633
0.0184654
0.0184936
0.0186063
0.0180668
0.0184235
0.0187683
0.0187943
0.0190159
0.0189742
0.0188045
0.0191214
0.017991
0.0185049
0.0181892
0.018899
0.0189865
0.0193461
0.0194386
0.0197694
0.0192206
0.0191277
0.0193717
0.0192417
0.0193702
0.0195454
0.0194809
0.0193214
0.0195604
0.0193838
0.0196682
0.0197557
0.0196094
0.0197807
0.0199826
0.0200994
0.0198929
0.0199678
0.0201644
0.0202006
0.0187105
0.0196967
0.0195658
0.0208195
0.0202357
0.0204325
0.0213265
0.0213011
0.0216239
0.0222836
0.0246504
0.0239114
0.0225243
0.0222011
0.0235107
0.0228801
0.0205047
0.0205023
0.0211469
0.0209654
0.0204773
0.0204477
0.0208116
0.0206929
0.0217828
0.0214054
0.0222503
0.0217242
0.0211134
0.0209008
0.021323
0.0210321
0.0203877