# vtk DataFile Version 2.0
Gerris simulation version 1.3.2 (131206-155120)
ASCII
DATASET UNSTRUCTURED_GRID

POINTS 1089 float
-0.5 0.46875 0
-0.46875 0.46875 0
-0.5 0.5 0
-0.46875 0.5 0
-0.4375 0.46875 0
-0.4375 0.5 0
-0.5 0.4375 0
-0.46875 0.4375 0
-0.4375 0.4375 0
-0.40625 0.46875 0
-0.40625 0.5 0
-0.375 0.46875 0
-0.375 0.5 0
-0.40625 0.4375 0
-0.375 0.4375 0
-0.5 0.40625 0
-0.46875 0.40625 0
-0.4375 0.40625 0
-0.5 0.375 0
-0.46875 0.375 0
-0.4375 0.375 0
-0.40625 0.40625 0
-0.375 0.40625 0
-0.40625 0.375 0
-0.375 0.375 0
-0.34375 0.46875 0
-0.34375 0.5 0
-0.3125 0.46875 0
-0.3125 0.5 0
-0.34375 0.4375 0
-0.3125 0.4375 0
-0.28125 0.46875 0
-0.28125 0.5 0
-0.25 0.46875 0
-0.25 0.5 0
-0.28125 0.4375 0
-0.25 0.4375 0
-0.34375 0.40625 0
-0.3125 0.40625 0
-0.34375 0.375 0
-0.3125 0.375 0
-0.28125 0.40625 0
-0.25 0.40625 0
-0.28125 0.375 0
-0.25 0.375 0
-0.5 0.34375 0
-0.46875 0.34375 0
-0.4375 0.34375 0
-0.5 0.3125 0
-0.46875 0.3125 0
-0.4375 0.3125 0
-0.40625 0.34375 0
-0.375 0.34375 0
-0.40625 0.3125 0
-0.375 0.3125 0
-0.5 0.28125 0
-0.46875 0.28125 0
-0.4375 0.28125 0
-0.5 0.25 0
-0.46875 0.25 0
-0.4375 0.25 0
-0.40625 0.28125 0
-0.375 0.28125 0
-0.40625 0.25 0
-0.375 0.25 0
-0.34375 0.34375 0
-0.3125 0.34375 0
-0.34375 0.3125 0
-0.3125 0.3125 0
-0.28125 0.34375 0
-0.25 0.34375 0
-0.28125 0.3125 0
-0.25 0.3125 0
-0.34375 0.28125 0
-0.3125 0.28125 0
-0.34375 0.25 0
-0.3125 0.25 0
-0.28125 0.28125 0
-0.25 0.28125 0
-0.28125 0.25 0
-0.25 0.25 0
-0.21875 0.46875 0
-0.21875 0.5 0
-0.1875 0.46875 0
-0.1875 0.5 0
-0.21875 0.4375 0
-0.1875 0.4375 0
-0.15625 0.46875 0
-0.15625 0.5 0
-0.125 0.46875 0
-0.125 0.5 0
-0.15625 0.4375 0
-0.125 0.4375 0
-0.21875 0.40625 0
-0.1875 0.40625 0
-0.21875 0.375 0
-0.1875 0.375 0
-0.15625 0.40625 0
-0.125 0.40625 0
-0.15625 0.375 0
-0.125 0.375 0
-0.09375 0.46875 0
-0.09375 0.5 0
-0.0625 0.46875 0
-0.0625 0.5 0
-0.09375 0.4375 0
-0.0625 0.4375 0
-0.03125 0.46875 0
-0.03125 0.5 0
0 0.46875 0
0 0.5 0
-0.03125 0.4375 0
0 0.4375 0
-0.09375 0.40625 0
-0.0625 0.40625 0
-0.09375 0.375 0
-0.0625 0.375 0
-0.03125 0.40625 0
0 0.40625 0
-0.03125 0.375 0
0 0.375 0
-0.21875 0.34375 0
-0.1875 0.34375 0
-0.21875 0.3125 0
-0.1875 0.3125 0
-0.15625 0.34375 0
-0.125 0.34375 0
-0.15625 0.3125 0
-0.125 0.3125 0
-0.21875 0.28125 0
-0.1875 0.28125 0
-0.21875 0.25 0
-0.1875 0.25 0
-0.15625 0.28125 0
-0.125 0.28125 0
-0.15625 0.25 0
-0.125 0.25 0
-0.09375 0.34375 0
-0.0625 0.34375 0
-0.09375 0.3125 0
-0.0625 0.3125 0
-0.03125 0.34375 0
0 0.34375 0
-0.03125 0.3125 0
0 0.3125 0
-0.09375 0.28125 0
-0.0625 0.28125 0
-0.09375 0.25 0
-0.0625 0.25 0
-0.03125 0.28125 0
0 0.28125 0
-0.03125 0.25 0
0 0.25 0
-0.5 0.21875 0
-0.46875 0.21875 0
-0.4375 0.21875 0
-0.5 0.1875 0
-0.46875 0.1875 0
-0.4375 0.1875 0
-0.40625 0.21875 0
-0.375 0.21875 0
-0.40625 0.1875 0
-0.375 0.1875 0
-0.5 0.15625 0
-0.46875 0.15625 0
-0.4375 0.15625 0
-0.5 0.125 0
-0.46875 0.125 0
-0.4375 0.125 0
-0.40625 0.15625 0
-0.375 0.15625 0
-0.40625 0.125 0
-0.375 0.125 0
-0.34375 0.21875 0
-0.3125 0.21875 0
-0.34375 0.1875 0
-0.3125 0.1875 0
-0.28125 0.21875 0
-0.25 0.21875 0
-0.28125 0.1875 0
-0.25 0.1875 0
-0.34375 0.15625 0
-0.3125 0.15625 0
-0.34375 0.125 0
-0.3125 0.125 0
-0.28125 0.15625 0
-0.25 0.15625 0
-0.28125 0.125 0
-0.25 0.125 0
-0.5 0.09375 0
-0.46875 0.09375 0
-0.4375 0.09375 0
-0.5 0.0625 0
-0.46875 0.0625 0
-0.4375 0.0625 0
-0.40625 0.09375 0
-0.375 0.09375 0
-0.40625 0.0625 0
-0.375 0.0625 0
-0.5 0.03125 0
-0.46875 0.03125 0
-0.4375 0.03125 0
-0.5 0 0
-0.46875 0 0
-0.4375 0 0
-0.40625 0.03125 0
-0.375 0.03125 0
-0.40625 0 0
-0.375 0 0
-0.34375 0.09375 0
-0.3125 0.09375 0
-0.34375 0.0625 0
-0.3125 0.0625 0
-0.28125 0.09375 0
-0.25 0.09375 0
-0.28125 0.0625 0
-0.25 0.0625 0
-0.34375 0.03125 0
-0.3125 0.03125 0
-0.34375 0 0
-0.3125 0 0
-0.28125 0.03125 0
-0.25 0.03125 0
-0.28125 0 0
-0.25 0 0
-0.21875 0.21875 0
-0.1875 0.21875 0
-0.21875 0.1875 0
-0.1875 0.1875 0
-0.15625 0.21875 0
-0.125 0.21875 0
-0.15625 0.1875 0
-0.125 0.1875 0
-0.21875 0.15625 0
-0.1875 0.15625 0
-0.21875 0.125 0
-0.1875 0.125 0
-0.15625 0.15625 0
-0.125 0.15625 0
-0.15625 0.125 0
-0.125 0.125 0
-0.09375 0.21875 0
-0.0625 0.21875 0
-0.09375 0.1875 0
-0.0625 0.1875 0
-0.03125 0.21875 0
0 0.21875 0
-0.03125 0.1875 0
0 0.1875 0
-0.09375 0.15625 0
-0.0625 0.15625 0
-0.09375 0.125 0
-0.0625 0.125 0
-0.03125 0.15625 0
0 0.15625 0
-0.03125 0.125 0
0 0.125 0
-0.21875 0.09375 0
-0.1875 0.09375 0
-0.21875 0.0625 0
-0.1875 0.0625 0
-0.15625 0.09375 0
-0.125 0.09375 0
-0.15625 0.0625 0
-0.125 0.0625 0
-0.21875 0.03125 0
-0.1875 0.03125 0
-0.21875 0 0
-0.1875 0 0
-0.15625 0.03125 0
-0.125 0.03125 0
-0.15625 0 0
-0.125 0 0
-0.09375 0.09375 0
-0.0625 0.09375 0
-0.09375 0.0625 0
-0.0625 0.0625 0
-0.03125 0.09375 0
0 0.09375 0
-0.03125 0.0625 0
0 0.0625 0
-0.09375 0.03125 0
-0.0625 0.03125 0
-0.09375 0 0
-0.0625 0 0
-0.03125 0.03125 0
0 0.03125 0
-0.03125 0 0
0 0 0
0.03125 0.46875 0
0.03125 0.5 0
0.0625 0.46875 0
0.0625 0.5 0
0.03125 0.4375 0
0.0625 0.4375 0
0.09375 0.46875 0
0.09375 0.5 0
0.125 0.46875 0
0.125 0.5 0
0.09375 0.4375 0
0.125 0.4375 0
0.03125 0.40625 0
0.0625 0.40625 0
0.03125 0.375 0
0.0625 0.375 0
0.09375 0.40625 0
0.125 0.40625 0
0.09375 0.375 0
0.125 0.375 0
0.15625 0.46875 0
0.15625 0.5 0
0.1875 0.46875 0
0.1875 0.5 0
0.15625 0.4375 0
0.1875 0.4375 0
0.21875 0.46875 0
0.21875 0.5 0
0.25 0.46875 0
0.25 0.5 0
0.21875 0.4375 0
0.25 0.4375 0
0.15625 0.40625 0
0.1875 0.40625 0
0.15625 0.375 0
0.1875 0.375 0
0.21875 0.40625 0
0.25 0.40625 0
0.21875 0.375 0
0.25 0.375 0
0.03125 0.34375 0
0.0625 0.34375 0
0.03125 0.3125 0
0.0625 0.3125 0
0.09375 0.34375 0
0.125 0.34375 0
0.09375 0.3125 0
0.125 0.3125 0
0.03125 0.28125 0
0.0625 0.28125 0
0.03125 0.25 0
0.0625 0.25 0
0.09375 0.28125 0
0.125 0.28125 0
0.09375 0.25 0
0.125 0.25 0
0.15625 0.34375 0
0.1875 0.34375 0
0.15625 0.3125 0
0.1875 0.3125 0
0.21875 0.34375 0
0.25 0.34375 0
0.21875 0.3125 0
0.25 0.3125 0
0.15625 0.28125 0
0.1875 0.28125 0
0.15625 0.25 0
0.1875 0.25 0
0.21875 0.28125 0
0.25 0.28125 0
0.21875 0.25 0
0.25 0.25 0
0.28125 0.46875 0
0.28125 0.5 0
0.3125 0.46875 0
0.3125 0.5 0
0.28125 0.4375 0
0.3125 0.4375 0
0.34375 0.46875 0
0.34375 0.5 0
0.375 0.46875 0
0.375 0.5 0
0.34375 0.4375 0
0.375 0.4375 0
0.28125 0.40625 0
0.3125 0.40625 0
0.28125 0.375 0
0.3125 0.375 0
0.34375 0.40625 0
0.375 0.40625 0
0.34375 0.375 0
0.375 0.375 0
0.40625 0.46875 0
0.40625 0.5 0
0.4375 0.46875 0
0.4375 0.5 0
0.40625 0.4375 0
0.4375 0.4375 0
0.46875 0.46875 0
0.46875 0.5 0
0.5 0.46875 0
0.5 0.5 0
0.46875 0.4375 0
0.5 0.4375 0
0.40625 0.40625 0
0.4375 0.40625 0
0.40625 0.375 0
0.4375 0.375 0
0.46875 0.40625 0
0.5 0.40625 0
0.46875 0.375 0
0.5 0.375 0
0.28125 0.34375 0
0.3125 0.34375 0
0.28125 0.3125 0
0.3125 0.3125 0
0.34375 0.34375 0
0.375 0.34375 0
0.34375 0.3125 0
0.375 0.3125 0
0.28125 0.28125 0
0.3125 0.28125 0
0.28125 0.25 0
0.3125 0.25 0
0.34375 0.28125 0
0.375 0.28125 0
0.34375 0.25 0
0.375 0.25 0
0.40625 0.34375 0
0.4375 0.34375 0
0.40625 0.3125 0
0.4375 0.3125 0
0.46875 0.34375 0
0.5 0.34375 0
0.46875 0.3125 0
0.5 0.3125 0
0.40625 0.28125 0
0.4375 0.28125 0
0.40625 0.25 0
0.4375 0.25 0
0.46875 0.28125 0
0.5 0.28125 0
0.46875 0.25 0
0.5 0.25 0
0.03125 0.21875 0
0.0625 0.21875 0
0.03125 0.1875 0
0.0625 0.1875 0
0.09375 0.21875 0
0.125 0.21875 0
0.09375 0.1875 0
0.125 0.1875 0
0.03125 0.15625 0
0.0625 0.15625 0
0.03125 0.125 0
0.0625 0.125 0
0.09375 0.15625 0
0.125 0.15625 0
0.09375 0.125 0
0.125 0.125 0
0.15625 0.21875 0
0.1875 0.21875 0
0.15625 0.1875 0
0.1875 0.1875 0
0.21875 0.21875 0
0.25 0.21875 0
0.21875 0.1875 0
0.25 0.1875 0
0.15625 0.15625 0
0.1875 0.15625 0
0.15625 0.125 0
0.1875 0.125 0
0.21875 0.15625 0
0.25 0.15625 0
0.21875 0.125 0
0.25 0.125 0
0.03125 0.09375 0
0.0625 0.09375 0
0.03125 0.0625 0
0.0625 0.0625 0
0.09375 0.09375 0
0.125 0.09375 0
0.09375 0.0625 0
0.125 0.0625 0
0.03125 0.03125 0
0.0625 0.03125 0
0.03125 0 0
0.0625 0 0
0.09375 0.03125 0
0.125 0.03125 0
0.09375 0 0
0.125 0 0
0.15625 0.09375 0
0.1875 0.09375 0
0.15625 0.0625 0
0.1875 0.0625 0
0.21875 0.09375 0
0.25 0.09375 0
0.21875 0.0625 0
0.25 0.0625 0
0.15625 0.03125 0
0.1875 0.03125 0
0.15625 0 0
0.1875 0 0
0.21875 0.03125 0
0.25 0.03125 0
0.21875 0 0
0.25 0 0
0.28125 0.21875 0
0.3125 0.21875 0
0.28125 0.1875 0
0.3125 0.1875 0
0.34375 0.21875 0
0.375 0.21875 0
0.34375 0.1875 0
0.375 0.1875 0
0.28125 0.15625 0
0.3125 0.15625 0
0.28125 0.125 0
0.3125 0.125 0
0.34375 0.15625 0
0.375 0.15625 0
0.34375 0.125 0
0.375 0.125 0
0.40625 0.21875 0
0.4375 0.21875 0
0.40625 0.1875 0
0.4375 0.1875 0
0.46875 0.21875 0
0.5 0.21875 0
0.46875 0.1875 0
0.5 0.1875 0
0.40625 0.15625 0
0.4375 0.15625 0
0.40625 0.125 0
0.4375 0.125 0
0.46875 0.15625 0
0.5 0.15625 0
0.46875 0.125 0
0.5 0.125 0
0.28125 0.09375 0
0.3125 0.09375 0
0.28125 0.0625 0
0.3125 0.0625 0
0.34375 0.09375 0
0.375 0.09375 0
0.34375 0.0625 0
0.375 0.0625 0
0.28125 0.03125 0
0.3125 0.03125 0
0.28125 0 0
0.3125 0 0
0.34375 0.03125 0
0.375 0.03125 0
0.34375 0 0
0.375 0 0
0.40625 0.09375 0
0.4375 0.09375 0
0.40625 0.0625 0
0.4375 0.0625 0
0.46875 0.09375 0
0.5 0.09375 0
0.46875 0.0625 0
0.5 0.0625 0
0.40625 0.03125 0
0.4375 0.03125 0
0.40625 0 0
0.4375 0 0
0.46875 0.03125 0
0.5 0.03125 0
0.46875 0 0
0.5 0 0
-0.5 -0.03125 0
-0.46875 -0.03125 0
-0.4375 -0.03125 0
-0.5 -0.0625 0
-0.46875 -0.0625 0
-0.4375 -0.0625 0
-0.40625 -0.03125 0
-0.375 -0.03125 0
-0.40625 -0.0625 0
-0.375 -0.0625 0
-0.5 -0.09375 0
-0.46875 -0.09375 0
-0.4375 -0.09375 0
-0.5 -0.125 0
-0.46875 -0.125 0
-0.4375 -0.125 0
-0.40625 -0.09375 0
-0.375 -0.09375 0
-0.40625 -0.125 0
-0.375 -0.125 0
-0.34375 -0.03125 0
-0.3125 -0.03125 0
-0.34375 -0.0625 0
-0.3125 -0.0625 0
-0.28125 -0.03125 0
-0.25 -0.03125 0
-0.28125 -0.0625 0
-0.25 -0.0625 0
-0.34375 -0.09375 0
-0.3125 -0.09375 0
-0.34375 -0.125 0
-0.3125 -0.125 0
-0.28125 -0.09375 0
-0.25 -0.09375 0
-0.28125 -0.125 0
-0.25 -0.125 0
-0.5 -0.15625 0
-0.46875 -0.15625 0
-0.4375 -0.15625 0
-0.5 -0.1875 0
-0.46875 -0.1875 0
-0.4375 -0.1875 0
-0.40625 -0.15625 0
-0.375 -0.15625 0
[...]
POINT_DATA 1089
SCALARS T float
LOOKUP_TABLE default
0
0
0
0
0
0
0
0
0
0
0
0
0
0
0
0
0
0
0
0
0
0
0
0
0
0
0
0
0
0
0
0
0
0
0
0
0
0
0
0
0
0
0
0
0
0
0
0
0
0
0
0
0
0
0
0
0
0
0
0
0
0
0
0
0
0
0
0
0
0
0
0
0
0
0
0
0
0
0
0
0
0
0
0
0
0
0
0
0
0
0
0
0
0
0
0
0
0
0
0
0
0
0
0
0
0
0
0
0
0
0
0
0
0
0
0
0
0
0
0
0
0
0
0
0
0
0
0
0
0
0
0
0
0
0
0
0
0
0
0
0
0
0
0
0
0
0
0
0
0
0
0
0
0
0
0
0
0
0
0
0
0
0
0
0
0
0
0
0
0
0
0
0
0
0
0
0
0
0
0
0
0
0
0
0
0
0
0
0
0
0
0
0
0
0
0
0
0
0
0
0
0
0
0
0
0
0
0
0
0
0
0
0
0
0
0
0.0740282
0
0
0
0.0182149
0.0830863
0.405628
0.335035
0.815335
0
0
0
0
0
0
0
0
0
0
0
0
0
0
0
0
0
0
0
0
0
0
0
0
0
0
0
0
0
0
0
0
0.00474973
0.0639812
0.298896
0.534099
0.14777
0.15537
0.64777
0.65537
0.79266
0.970118
0.998514
1
1
1
1
1
0.0765094
0.00967724
0.558018
0.341469
0
0
0.100403
0.000120269
0.981508
0.831765
1
0.999974
0.468843
0.118586
0.863549
0.407828
0
0
0
0
0
0
0
0
0
0
0
0
0
0
0
0
0
0
0
0
0
0
0
0
0
0
0
0
0
0
0
0
0
0
0
0
0
0
0
0
0
0
0
0
0
0
0
0.000912928
0
0
0
0
0
0.130044
0.00852286
0.3782
0
0
0.0792968
0.228702
0
0
0.283338
0.169587
0.458428
0.728702
0.869677
1
0.783338
0.6519
1
0.982313
0
0
0
0
0
0
0
0
0
0
0
0
0
0
0
0
0
0
0
0
0
0
0
0
0
0
0
0
0
0
0
0
0
0
0
0
0
0
0
0
0
0
0.0365672
0
0
0
0
0
0.309366
0.0404857
0.665546
0.183233
0
0
0
0
0
0
0
0
0
0
0
0
0
0
0
0
0
0
0
0
0
0
0
0
0.0217497
0.512013
0.0132268
0.440155
0
0
0
0
0
0.196801
0
0.0195903
0.990264
1
0.926929
1
1
1
1
0.998793
0.601354
0.879647
0.174143
0.379647
0.927975
0.780813
0.427975
0.28202
0
0
0
0
0
0
0
0
0
0
0.0442531
0
0
0
0
0
0
0
0
0
0
0
0
0
0
0
0
6.94102e-05
0
0
8.43738e-05
1.49637e-05
0.796042
0.296042
0.714459
0.215666
0
0
0
0
0.390304
0.0623708
0.0791395
0
0
0
0
0
0
0
0
0
0
0
0
0
0
0
0
0
0
0
0
0
0
0
0
0
0
0
0
0
0
0
0
0
0
0
0
0
0
0
0
0
0
0
0
0
0
0
0
0
0
0
0
0
0
0
0
0
0
0
0
0
0
0
0
0
0
0
0
0
0
0
0
0
0
0.124012
0
0.26746
0.607746
0.983734
0.76746
1
0
0.337828
0
0.326352
0.837828
1
0.826352
1
0
0
0
0
0
0
0
0
0
0
0
0
0
0
0
0
0
0
0
0
0
0.229845
0
0.0824984
0.729845
1
0.534945
0.952447
0
0.00284046
0
0
0.239008
0.704057
0.0337209
0.266878
1
1
1
1
1
1
1
1
1
1
1
1
1
1
1
1
1
1
1
1
0.995109
0.683718
1
0.847652
1
1
1
1
1
0.923358
1
0.914622
1
1
1
1
1
1
1
1
0.967889
1
0.613016
0.842256
1
1
0.954702
0.965502
1
1
1
1
1
0.817489
0.981179
0.621987
1
0.984842
0.875389
0.671321
0.780187
0.313224
0.333296
0.0641655
0
0
0
0
0
0
0
0
0
0
0
0
0
0
0
0
0
0
0
0
0
0
0
0
0
0.0152679
0
0
0
0
0
0
0
0
0
0
0
0
0
0
0
0
0
0
0
0
0
0
0
0
0
0
0
0
0
0
0
0
0
0
0
0
0
0
0
0
0
0
0
0
0
0
0.145127
0.342256
0
0
0.454702
0.465502
0
0
0
0
0
0
0
0
0
0
0.375389
0.186479
0
0
0.0342878
0
0
0
0
0
0
0
0
0
0
0
0
0
0
0
0
0
0
0
0
0
0
0
0
0
0
0
0
0
0
0
0
0
0
0
0
0
0
0
0
0
0
0
0.188609
0
0.347652
0
0
0
0
0
0.423358
0
0.414622
0
0
0
0
0
0
0.0100279
0
0.0121698
0.0414255
0.0318864
0.180904
0.400925
0
0.113543
0
0.228288
0.500894
0.869054
0.728288
1
0.317489
0
0.140808
0
0
0
0
0
0.0178796
0
0
0
0
0
0
0
0
0.134859
0
0.017902
0.571223
0.926269
0.204266
0.426323
0
0
0
0
0
5.40939e-05
0
0
0.000552453
6.35818e-05
0.385204
0.15669
0
0
0.00367769
0
0.884651
0.472946
1
0.632092
0.069997
0
0.132092
0
0
0
0
0
0
0
0
0
0
0
0
0
0
0
0
0
0.889841
0.471217
0.389895
0.155444
0.0712811
0
0.00550844
0
5.40939e-05
0
0
0
0
0
0
0
0
0
0
0
0
0
0
0
0
0
0
0
0
0
0
0
0
0
0
0
0
0
0
0
0
0
0
0
0
0
0
0
0
0
0
0
0
0
0
0
0
0
0
0
0
0
0
0
0
0
0
0
0
0
0
0
0
0
0
0
0
0
0
0
0
0
0
0
0
0
0
0
0
0
0
0
0
0
0
0
0
0
0
0
0
0
0
0
0
0
0
0
0
0
0
0
0
0
0
0
0
0
0
0
0
0
0
0
0
0
0
0
0
0
0
0
0
0
0
0
0
0
0
0
0
0
0
0
0
0
0
0
0
0
0
0
0
0
0
0
0
0
0
0

SCALARS P float
LOOKUP_TABLE default
-0.00851993
-0.0085452
-0.00849307
-0.00851843
-0.00857322
-0.00854752
-0.00854481
-0.00856919
-0.0085958
-0.008605
-0.00858152
-0.00864093
-0.00862064
-0.00862579
-0.00865968
-0.00856919
-0.00859093
-0.00861542
-0.00859324
-0.00861029
-0.00863179
-0.00864379
-0.00867658
-0.00865865
-0.00869127
-0.00868018
-0.00866396
-0.00872154
-0.0087101
-0.00869668
-0.00873569
-0.0087628
-0.00875611
-0.0088018
-0.00879946
-0.00877481
-0.00881217
-0.0087129
-0.00875166
-0.00872845
-0.00876901
-0.00879096
-0.008829
-0.00881074
-0.00885171
-0.00861633
-0.00862597
-0.00864347
-0.00863344
-0.00863428
-0.00864765
-0.00866898
-0.00870248
-0.00867258
-0.0087085
-0.00864058
-0.00863157
-0.0086412
-0.00862609
-0.00861045
-0.00861907
-0.00866674
-0.00870705
-0.00864776
-0.00869532
-0.00874228
-0.00878689
-0.00875306
-0.00880449
-0.00883352
-0.00887981
-0.008859
-0.00891352
-0.00875905
-0.00882067
-0.00875828
-0.00883466
-0.00888682
-0.00895325
-0.00891761
-0.00900109
-0.0088362
-0.00883687
-0.00886379
-0.00886528
-0.00884585
-0.00887395
-0.00888387
-0.00888504
-0.00889556
-0.00889661
-0.00889517
-0.00890764
-0.00886389
-0.00889376
-0.00888968
-0.00892256
-0.00891683
-0.00893065
-0.00894822
-0.00896396
-0.00889636
-0.00889816
-0.00888325
-0.00888724
-0.00890818
-0.00889305
-0.00885159
-0.00885913
-0.00879859
-0.00881215
-0.00885726
-0.0087965
-0.00893158
-0.00891542
-0.00896624
-0.00895069
-0.00887662
-0.00880934
-0.00891204
-0.00884441
-0.00892271
-0.00895972
-0.00896343
-0.00900565
-0.00898837
-0.00900625
-0.00903736
-0.0090568
-0.0090126
-0.00906103
-0.00907319
-0.0091293
-0.00909482
-0.00911376
-0.00916365
-0.0091788
-0.00901048
-0.00899722
-0.00906268
-0.00905309
-0.00896418
-0.00890555
-0.00902973
-0.00898629
-0.0091194
-0.00911154
-0.00918031
-0.00916858
-0.00909605
-0.0090732
-0.00915627
-0.00915213
-0.00858134
-0.00856592
-0.00857762
-0.00849668
-0.00849276
-0.00851318
-0.00861235
-0.0086701
-0.00855731
-0.00862852
-0.00838993
-0.00839911
-0.00842812
-0.00827767
-0.00829223
-0.00832421
-0.00848102
-0.00856616
-0.00838225
-0.00847961
-0.00874782
-0.00884421
-0.008726
-0.00884973
-0.00895067
-0.0090593
-0.00899096
-0.00913717
-0.00868642
-0.00884603
-0.00862792
-0.00883833
-0.00903948
-0.00924657
-0.00911842
-0.00943396
-0.0081719
-0.00817868
-0.00820311
-0.00807212
-0.00805764
-0.00806094
-0.00825641
-0.00835905
-0.00809492
-0.00818902
-0.00799073
-0.00793703
-0.00790117
-0.00791009
-0.00780878
-0.00771853
-0.00789468
-0.00795176
-0.0076428
-0.00761392
-0.0085377
-0.00881735
-0.00838951
-0.00874196
-0.00924669
-0.00976824
-0.00937422
-0.00556431
-0.00813189
-0.00851589
-0.00767434
-0.00671801
-0.00408422
0.014882
0.011591
0.0397383
-0.00915003
-0.00921723
-0.00925347
-0.00933454
-0.00924922
-0.00925428
-0.00935931
-0.00934913
-0.00940968
-0.00952107
-0.00968253
-0.00984501
-0.00953717
-0.00950669
-0.00984076
-0.0097792
-0.00924523
-0.00921748
-0.00932447
-0.00926496
-0.00918989
-0.00917444
-0.00919515
-0.009126
-0.00946424
-0.00934831
-0.00972141
-0.0095239
-0.00919673
-0.00902255
-0.00924331
-0.00891093
-0.00997463
-0.00674012
0.00781029
0.0223658
-0.00164978
-0.00116227
0.029675
0.0301883
0.0383799
0.0499349
0.0509007
0.0515146
0.052354
0.0524622
0.0518993
0.0519745
-0.0059132
-0.00947224
0.0238976
0.0102957
-0.00943731
-0.00886272
-0.00387957
-0.00886351
0.0508587
0.040692
0.0517425
0.0512041
0.0183326
-0.00176365
0.0422175
0.0156081
-0.00872303
-0.00874712
-0.00862428
-0.00866529
-0.00870747
-0.00858543
-0.00850742
-0.00857248
-0.00838238
-0.00847657
-0.00843397
-0.00826658
-0.00870854
-0.00856081
-0.00873955
-0.00857005
-0.00836829
-0.008142
-0.00833628
-0.00802727
-0.00827
-0.00839013
-0.00819131
-0.00832581
-0.00811406
-0.00800884
-0.00816432
-0.00829395
-0.00819276
-0.00829512
-0.00798604
-0.00806045
-0.0079186
-0.00775797
-0.00767253
-0.00739845
-0.0077339
-0.00788826
-0.00735952
-0.00766534
-0.00880882
-0.00863479
-0.00891468
-0.00876841
-0.00837752
-0.00795312
-0.00854821
-0.00794313
-0.00904378
-0.00898666
-0.00916505
-0.00921868
-0.00897213
0.00723448
-0.00814951
0.0371868
-0.00731748
-0.00681066
0.00193707
0.0194849
-0.0067697
-0.00736938
0.0254475
0.0117064
0.0466269
0.0777333
0.0961388
0.110622
0.0836667
0.0685082
0.11056
0.109185
-0.0082512
-0.00831767
-0.00831043
-0.00834688
-0.0081759
-0.008275
-0.00836332
-0.0083765
-0.00840791
-0.0084041
-0.00835564
-0.00841793
-0.00809956
-0.00825347
-0.0080446
-0.0082636
-0.00836639
-0.00844401
-0.00840843
-0.00849381
-0.00844224
-0.00842781
-0.00847085
-0.00844964
-0.00846107
-0.00849431
-0.0084958
-0.00847084
-0.00851993
-0.00849354
-0.00852075
-0.00854481
-0.00849085
-0.00852407
-0.00853575
-0.00856221
-0.00854799
-0.00856919
-0.00857837
-0.00859324
-0.00805596
-0.00835715
-0.00416764
-0.00858926
-0.00851958
-0.00858935
-0.00871665
-0.00872844
0.0276788
-0.00457343
0.0707344
0.0120147
-0.00907564
-0.00893309
-0.00957913
-0.00917161
-0.00860699
-0.00861327
-0.00869659
-0.00866879
-0.0086129
-0.00861633
-0.00864484
-0.00863344
-0.00880982
-0.00872711
-0.00890793
-0.00876037
-0.00867052
-0.00864058
-0.00867148
-0.00862609
-0.00918792
-0.00927925
-0.00908161
-0.00911547
-0.00622745
0.0538233
-0.00727123
0.0453721
-0.00885861
-0.00874562
-0.00858837
-0.00831656
-0.00873534
0.0160245
-0.00810307
-0.00525339
0.111171
0.111366
0.103903
0.111454
0.111216
0.111843
0.111106
0.110923
0.0650889
0.0973035
0.0138628
0.0383304
0.102204
0.0845109
0.0435356
0.0263645
-0.00833052
-0.00791333
-0.00806952
-0.00751056
-0.00757514
-0.00722108
-0.0070913
-0.00672004
-0.00766301
-0.00697864
-0.00451097
-0.00643415
-0.00646301
-0.00598936
-0.0059804
-0.00548861
-0.00679548
-0.00650652
-0.00640988
-0.00625728
-0.00650487
-0.00640052
-0.00645185
-0.00666764
-0.00563681
-0.0055999
-0.00497586
-0.00495003
-0.00636261
-0.00720573
-0.00610686
-0.00733229
0.0871215
0.0258896
0.076712
0.0166181
-0.00975815
-0.00922465
-0.00914671
-0.00885757
0.0383979
-0.000629983
0.00263892
-0.00724544
-0.00825485
-0.00835854
-0.00781391
-0.00806755
-0.00889891
-0.00872804
-0.00868663
-0.00858474
-0.00862996
-0.00858134
-0.00852562
-0.00849668
-0.00840515
-0.00840078
-0.00820302
-0.00824823
-0.00839391
-0.00838993
-0.00826917
-0.00827767
-0.00670607
-0.00742578
-0.00699205
-0.00751632
-0.00777407
-0.00798149
-0.0077892
-0.0079721
-0.00762318
-0.00795908
-0.00802308
-0.00836321
-0.00805823
-0.00814352
-0.00830913
-0.0083274
-0.00810602
-0.00815038
-0.0080712
-0.00809377
-0.00816951
-0.0081719
-0.00809183
-0.00807212
-0.00815284
-0.00810871
-0.00824491
-0.00813263
-0.0080548
-0.00799073
-0.00802318
-0.00791009
-0.00784706
-0.00769205
-0.00753452
-0.00779552
-0.00760073
-0.00738744
-0.00736632
-0.00719179
-0.00713916
-0.00681213
-0.00775463
-0.00755496
-0.00732451
-0.00776269
-0.00758076
-0.00737519
-0.00704804
-0.00666542
-0.00713656
-0.00684356
-0.00701972
0.000353224
-0.00640173
0.00901076
0.0277861
0.0491122
0.0366135
0.0495
-0.00617509
0.0129973
-0.00648581
0.0122177
0.0403708
0.049337
0.0398666
0.0494659
-0.00779882
-0.00765478
-0.00750044
-0.00786592
-0.00776599
-0.00767042
-0.00733518
-0.00718005
-0.00758917
-0.00756181
-0.00795213
-0.00788985
-0.00784397
-0.00804378
-0.00801047
-0.00799826
-0.00782698
-0.00788008
-0.00801798
-0.00810129
-0.00703531
0.00646867
-0.0076321
-0.002816
0.0345804
0.0496721
0.0232233
0.0473845
-0.00804978
-0.00819679
-0.00826912
-0.00862971
0.00550588
0.033086
-0.00701366
0.00663567
0.0506097
0.0512127
0.0503567
0.0510048
0.0515926
0.0516538
0.0513726
0.0514374
0.0502299
0.0508707
0.0502683
0.0508409
0.0512272
0.0513019
0.0511667
0.0512315
0.051379
0.0507654
0.0511839
0.0505949
0.0496465
0.0316664
0.0497459
0.040727
0.0510865
0.0505903
0.0510232
0.0505688
0.0498871
0.0451311
0.0499355
0.0447417
0.0503613
0.050858
0.0505646
0.0509426
0.0511589
0.0512005
0.0512154
0.0512435
0.0489281
0.0511008
0.02737
0.041455
0.0513443
0.0513861
0.0484245
0.0490605
0.0509547
0.0504527
0.0509808
0.05049
0.04973
0.0389727
0.0486361
0.0275451
0.05118
0.0498256
0.0433003
0.0304169
0.0367881
0.00903776
0.00969928
-0.00605785
-0.00812961
-0.00811864
-0.00812999
-0.0082093
-0.00821158
-0.0082339
-0.00817281
-0.00826901
-0.00828225
-0.00836815
-0.00827799
-0.00828941
-0.00831802
-0.00833722
-0.00835412
-0.0083849
-0.00836811
-0.00844552
-0.00843221
-0.0084984
-0.00842694
-0.00872825
-0.00849251
-0.00869809
-0.00906907
-0.00862252
-0.00892364
-0.00923867
-0.00854974
-0.00869902
-0.00858236
-0.00869053
-0.00885358
-0.00903304
-0.00880102
-0.00891966
-0.00838673
-0.00840712
-0.00843836
-0.00842828
-0.00845101
-0.00848187
-0.00848218
-0.00853946
-0.008522
-0.00857163
-0.00846324
-0.00848748
-0.00851752
-0.00849354
-0.00851843
-0.00854752
-0.00855432
-0.008598
-0.00858152
-0.00862064
-0.00860914
-0.00869237
-0.00862968
-0.00869526
-0.00877674
-0.00886113
-0.0087613
-0.00882512
-0.00864756
-0.00870161
-0.00866396
-0.0087101
-0.00875577
-0.00880713
-0.00875611
-0.00879946
-0.0010196
0.0110316
-0.00945694
-0.00946028
0.0178899
0.0184592
-0.00943341
-0.00948861
-0.00915892
-0.00917327
-0.00900842
-0.00903877
-0.0091608
-0.00919213
-0.00905074
-0.0090725
0.0126893
0.000902216
-0.00963765
-0.00971337
-0.00814709
-0.00963715
-0.00959829
-0.00932551
-0.0092724
-0.00931744
-0.00910497
-0.00912112
-0.00926388
-0.00912945
-0.00908591
-0.00900504
-0.00892738
-0.00895979
-0.00887745
-0.00891002
-0.00897583
-0.00899085
-0.0089298
-0.00894333
-0.0088504
-0.00888061
-0.00883687
-0.00886528
-0.0089003
-0.00891227
-0.00888504
-0.00889661
-0.00900571
-0.00900949
-0.00894987
-0.00894532
-0.00898211
-0.00892634
-0.00891931
-0.00887273
-0.00891524
-0.00890676
-0.00889816
-0.00888724
-0.00888056
-0.00883609
-0.00885913
-0.00881215
0.00438344
-0.00552721
0.013489
-0.00523877
-0.00517352
-0.00444229
-0.00516542
-0.00473389
0.0175836
-0.00568533
0.016813
-0.00631557
-0.00574424
-0.0057485
-0.00634897
-0.0065411
-0.00330331
-0.00365473
-0.00407306
-0.00413103
-0.00233548
-0.00484447
0.0216415
0.0601181
-0.00582197
0.0144737
-0.00684756
0.0350551
0.0821123
0.146491
0.124663
0.171888
0.0108455
-0.00701943
0.000195477
-0.00764876
-0.00720846
-0.00771311
-0.00773108
-0.00805755
-0.00766641
-0.0083916
-0.00913951
-0.00873381
-0.00830454
-0.00844052
-0.00858702
-0.00861609
-0.00846198
0.0166208
-0.00856655
-0.00564975
0.0977428
0.161771
0.0292935
0.0703818
-0.00871278
-0.00906598
-0.00876021
-0.00894079
-0.00952508
-0.00897617
-0.0091569
-0.00883755
-0.0099346
-0.00956597
0.0579349
0.0174431
-0.00883848
-0.00863727
-0.00881635
-0.0088559
0.149473
0.0745098
0.171962
0.104281
0.00252778
-0.0084861
0.0140086
-0.00817662
-0.00839118
-0.00818981
-0.00847995
-0.00821725
-0.00801408
-0.00784706
-0.00799757
-0.00779552
-0.00830068
-0.00812907
-0.00818135
-0.00807768
-0.00794369
-0.00775463
-0.00792787
-0.00776269
0.153613
0.0769786
0.0631493
0.0203057
0.0044524
-0.00803071
-0.00697614
-0.00801125
-0.00818643
-0.00819189
-0.00837912
-0.00831324
-0.00817201
-0.00813929
-0.00824882
-0.00820419
-0.00810135
-0.00803791
-0.00806357
-0.00803351
-0.00792687
-0.00779882
-0.00795564
-0.00786592
-0.00811955
-0.00808012
-0.00816804
-0.00813322
-0.00801537
-0.00795213
-0.00808491
-0.00804378
-0.00915567
-0.0088647
-0.0090606
-0.00887183
-0.00873954
-0.00871711
-0.00877414
-0.00873199
-0.00898414
-0.00885933
-0.00891295
-0.0088229
-0.00877943
-0.00872857
-0.00875326
-0.00869818
-0.00876517
-0.00881599
-0.00873234
-0.00873517
-0.00887194
-0.00869458
-0.00873559
-0.00861922
-0.00870156
-0.00867661
-0.00865674
-0.00861963
-0.00864728
-0.00856609
-0.00858225
-0.00852482
-0.00885869
-0.00878523
-0.00881361
-0.00874521
-0.00871887
-0.00865948
-0.00867631
-0.00861008
-0.00877693
-0.00870525
-0.00874712
-0.00866529
-0.00862777
-0.00855028
-0.00857248
-0.00847657
-0.0086088
-0.00856467
-0.00855101
-0.00850187
-0.008525
-0.00848235
-0.00846368
-0.00843385
-0.00848052
-0.00842546
-0.00839013
-0.00832581
-0.00838994
-0.00837339
-0.00829395
-0.00829512
-0.00846129
-0.00838535
-0.00847929
-0.00841582
-0.00830661
-0.00825641
-0.00835168
-0.00830583
-0.00847713
-0.00842313
-0.00846656
-0.00842557
-0.00837362
-0.00833731
-0.00839044
-0.00836432
-0.00821576
-0.00818571
-0.00826838
-0.00824273
-0.00815246
-0.00812961
-0.00822019
-0.0082093
-0.00830911
-0.00829127
-0.00834542
-0.00833512
-0.00827913
-0.00827799
-0.0083313
-0.00833722
-0.00844441
-0.0084174
-0.00841342
-0.00840183
-0.00839666
-0.00838237
-0.0083958
-0.0083941
-0.00837162
-0.00837811
-0.00831767
-0.00834688
-0.0083885
-0.00840067
-0.0083765
-0.0084041
-0.00837378
-0.00837163
-0.00839599
-0.00840201
-0.00837524
-0.00838673
-0.00841226
-0.00842828
-0.00841336
-0.00842746
-0.00842781
-0.00844964
-0.00844358
-0.00846324
-0.00847084
-0.00849307

SCALARS U float
LOOKUP_TABLE default
0.0188486
0.0187146
0.0185261
0.0183971
0.0185775
0.0182512
0.0191893
0.0190268
0.0188716
0.018451
0.0181018
0.0183525
0.0179689
0.0187366
0.0186369
0.019539
0.0193285
0.019134
0.0198767
0.019606
0.0193578
0.0189673
0.018841
0.0191423
0.0189701
0.018302
0.017879
0.0183235
0.0178656
0.0185878
0.0186066
0.0184413
0.0179675
0.0186802
0.0182292
0.018709
0.0189095
0.018767
0.0187587
0.0188512
0.0187976
0.0188277
0.0189839
0.0188207
0.0189305
0.0201695
0.0198383
0.0195292
0.0203891
0.0200048
0.0196312
0.019252
0.0190164
0.0192792
0.0189599
0.0205219
0.0200947
0.0196506
0.0206028
0.020123
0.0195873
0.0192047
0.0187711
0.0190142
0.0184196
0.0188333
0.018716
0.0186873
0.0184802
0.0186797
0.0187412
0.018364
0.0183704
0.0183706
0.0180315
0.0178322
0.0172908
0.0177977
0.0177285
0.0168675
0.0166698
0.0190548
0.0186842
0.0195664
0.0193507
0.0192134
0.019615
0.0201856
0.0201945
0.0208479
0.0211174
0.0200886
0.0205873
0.0192289
0.0195553
0.0191302
0.0194139
0.0199393
0.0203417
0.0197583
0.0201243
0.0214729
0.0219893
0.0219813
0.0226821
0.0210567
0.0214434
0.0223281
0.0231242
0.0225017
0.0233049
0.0217191
0.0218761
0.0207194
0.0210303
0.0204687
0.020749
0.0212549
0.0213914
0.0209485
0.021069
0.0189104
0.0191882
0.0185255
0.0188461
0.0195505
0.0199495
0.019305
0.0198337
0.0178834
0.0183127
0.0168239
0.0174501
0.0189832
0.0197847
0.0185091
0.0198086
0.0203297
0.0206375
0.0203473
0.0207641
0.0208508
0.0209757
0.0210468
0.0212056
0.0205703
0.0212017
0.0210777
0.022068
0.0216172
0.0218195
0.0226686
0.0228957
0.0206848
0.0201203
0.0194563
0.0208276
0.0201295
0.0192951
0.018709
0.0178888
0.0183229
0.0171987
0.0210227
0.0201817
0.0191656
0.02125
0.0203239
0.0191755
0.0179377
0.0164232
0.0177121
0.0157533
0.0170252
0.0161604
0.0159272
0.0145293
0.0154066
0.0149513
0.0131646
0.0121591
0.0145531
0.0122791
0.0130872
0.00956928
0.00983469
0.00780034
0.00559678
0.00212691
0.0215045
0.0206289
0.0194824
0.0218134
0.0211917
0.0202862
0.0179018
0.0155697
0.0188956
0.016642
0.022193
0.0220756
0.0217591
0.0226949
0.0232526
0.0238283
0.0211057
0.0198844
0.0244589
0.0252057
0.0121214
0.00746069
0.0132195
0.00902405
0.00238914
-0.00150967
0.00539065
0.00424948
0.0182112
0.0171285
0.0266345
0.0295581
0.0177612
0.0207352
0.0335882
0.0375584
0.0150554
0.0159956
0.0120614
0.0134852
0.0177344
0.0199132
0.016406
0.0201381
0.00724397
0.00937864
0.00104049
0.00430954
0.0142218
0.0205388
0.0116896
0.0211829
0.0220041
0.0235335
0.0236456
0.0260076
0.0243079
0.0244235
0.0269061
0.0266464
0.0263922
0.0300581
0.0300057
0.0355252
0.0310086
0.0299393
0.0366612
0.0344463
-0.00171345
0.00328171
0.00702141
0.0125091
0.0119569
0.0221243
0.018046
0.0228689
0.0249828
0.0272159
0.039386
0.0364369
0.0256542
0.0217917
0.0289102
0.019377
0.0318841
0.0389212
0.0281342
0.0339753
0.0410855
0.0385633
0.0378322
0.0375
0.0189727
0.0199203
0.0106808
0.00601828
0.0238219
0.0270341
0.00700658
0.0113224
0.0225204
0.0232536
0.022414
0.0230171
0.021933
0.0219175
0.0222109
0.0226418
0.0219304
0.0221666
0.021856
0.0217557
0.021464
0.0215129
0.0211441
0.0212426
0.0215805
0.0216563
0.0214251
0.0216417
0.0215668
0.0216172
0.0211313
0.0210284
0.0215679
0.0212759
0.0206657
0.0204484
0.0202401
0.019934
0.0209265
0.0206085
0.0216308
0.0214606
0.0217201
0.021655
0.0212226
0.0210353
0.0216046
0.0216086
0.0210531
0.0211768
0.021258
0.0212997
0.0213676
0.0214865
0.0211723
0.0207233
0.0218157
0.0217127
0.0228311
0.0225875
0.0213309
0.0207776
0.0223117
0.0222466
0.0215056
0.0217208
0.0206238
0.0215049
0.0223014
0.0227654
0.0228952
0.0238305
0.0208712
0.0214999
0.0222579
0.0218397
0.0217036
0.0219722
0.0207961
0.0201963
0.0198945
0.0195224
0.0196268
0.0192211
0.0203514
0.02013
0.0194377
0.0190219
0.0193029
0.0188946
0.0199547
0.0198049
0.020893
0.0207309
0.0215322
0.0213713
0.0205737
0.0203978
0.0212296
0.0210274
0.0191921
0.0188043
0.0190872
0.0187244
0.0196574
0.0195094
0.018974
0.0186348
0.0188486
0.0185261
0.0193524
0.0191893