# vtk DataFile Version 2.0
Gerris simulation version 1.3.2 (131206-155120)
ASCII
DATASET UNSTRUCTURED_GRID

POINTS 1089 float
-0.5 0.46875 0
-0.46875 0.46875 0
-0.5 0.5 0
-0.46875 0.5 0
-0.4375 0.46875 0
-0.4375 0.5 0
-0.5 0.4375 0
-0.46875 0.4375 0
-0.4375 0.4375 0
-0.40625 0.46875 0
-0.40625 0.5 0
-0.375 0.46875 0
-0.375 0.5 0
-0.40625 0.4375 0
-0.375 0.4375 0
-0.5 0.40625 0
-0.46875 0.40625 0
-0.4375 0.40625 0
-0.5 0.375 0
-0.46875 0.375 0
-0.4375 0.375 0
-0.40625 0.40625 0
-0.375 0.40625 0
-0.40625 0.375 0
-0.375 0.375 0
-0.34375 0.46875 0
-0.34375 0.5 0
-0.3125 0.46875 0
-0.3125 0.5 0
-0.34375 0.4375 0
-0.3125 0.4375 0
-0.28125 0.46875 0
-0.28125 0.5 0
-0.25 0.46875 0
-0.25 0.5 0
-0.28125 0.4375 0
-0.25 0.4375 0
-0.34375 0.40625 0
-0.3125 0.40625 0
-0.34375 0.375 0
-0.3125 0.375 0
-0.28125 0.40625 0
-0.25 0.40625 0
-0.28125 0.375 0
-0.25 0.375 0
-0.5 0.34375 0
-0.46875 0.34375 0
-0.4375 0.34375 0
-0.5 0.3125 0
-0.46875 0.3125 0
-0.4375 0.3125 0
-0.40625 0.34375 0
-0.375 0.34375 0
-0.40625 0.3125 0
-0.375 0.3125 0
-0.5 0.28125 0
-0.46875 0.28125 0
-0.4375 0.28125 0
-0.5 0.25 0
-0.46875 0.25 0
-0.4375 0.25 0
-0.40625 0.28125 0
-0.375 0.28125 0
-0.40625 0.25 0
-0.375 0.25 0
-0.34375 0.34375 0
-0.3125 0.34375 0
-0.34375 0.3125 0
-0.3125 0.3125 0
-0.28125 0.34375 0
-0.25 0.34375 0
-0.28125 0.3125 0
-0.25 0.3125 0
-0.34375 0.28125 0
-0.3125 0.28125 0
-0.34375 0.25 0
-0.3125 0.25 0
-0.28125 0.28125 0
-0.25 0.28125 0
-0.28125 0.25 0
-0.25 0.25 0
-0.21875 0.46875 0
-0.21875 0.5 0
-0.1875 0.46875 0
-0.1875 0.5 0
-0.21875 0.4375 0
-0.1875 0.4375 0
-0.15625 0.46875 0
-0.15625 0.5 0
-0.125 0.46875 0
-0.125 0.5 0
-0.15625 0.4375 0
-0.125 0.4375 0
-0.21875 0.40625 0
-0.1875 0.40625 0
-0.21875 0.375 0
-0.1875 0.375 0
-0.15625 0.40625 0
-0.125 0.40625 0
-0.15625 0.375 0
-0.125 0.375 0
-0.09375 0.46875 0
-0.09375 0.5 0
-0.0625 0.46875 0
-0.0625 0.5 0
-0.09375 0.4375 0
-0.0625 0.4375 0
-0.03125 0.46875 0
-0.03125 0.5 0
0 0.46875 0
0 0.5 0
-0.03125 0.4375 0
0 0.4375 0
-0.09375 0.40625 0
-0.0625 0.40625 0
-0.09375 0.375 0
-0.0625 0.375 0
-0.03125 0.40625 0
0 0.40625 0
-0.03125 0.375 0
0 0.375 0
-0.21875 0.34375 0
-0.1875 0.34375 0
-0.21875 0.3125 0
-0.1875 0.3125 0
-0.15625 0.34375 0
-0.125 0.34375 0
-0.15625 0.3125 0
-0.125 0.3125 0
-0.21875 0.28125 0
-0.1875 0.28125 0
-0.21875 0.25 0
-0.1875 0.25 0
-0.15625 0.28125 0
-0.125 0.28125 0
-0.15625 0.25 0
-0.125 0.25 0
-0.09375 0.34375 0
-0.0625 0.34375 0
-0.09375 0.3125 0
-0.0625 0.3125 0
-0.03125 0.34375 0
0 0.34375 0
-0.03125 0.3125 0
0 0.3125 0
-0.09375 0.28125 0
-0.0625 0.28125 0
-0.09375 0.25 0
-0.0625 0.25 0
-0.03125 0.28125 0
0 0.28125 0
-0.03125 0.25 0
0 0.25 0
-0.5 0.21875 0
-0.46875 0.21875 0
-0.4375 0.21875 0
-0.5 0.1875 0
-0.46875 0.1875 0
-0.4375 0.1875 0
-0.40625 0.21875 0
-0.375 0.21875 0
-0.40625 0.1875 0
-0.375 0.1875 0
-0.5 0.15625 0
-0.46875 0.15625 0
-0.4375 0.15625 0
-0.5 0.125 0
-0.46875 0.125 0
-0.4375 0.125 0
-0.40625 0.15625 0
-0.375 0.15625 0
-0.40625 0.125 0
-0.375 0.125 0
-0.34375 0.21875 0
-0.3125 0.21875 0
-0.34375 0.1875 0
-0.3125 0.1875 0
-0.28125 0.21875 0
-0.25 0.21875 0
-0.28125 0.1875 0
-0.25 0.1875 0
-0.34375 0.15625 0
-0.3125 0.15625 0
-0.34375 0.125 0
-0.3125 0.125 0
-0.28125 0.15625 0
-0.25 0.15625 0
-0.28125 0.125 0
-0.25 0.125 0
-0.5 0.09375 0
-0.46875 0.09375 0
-0.4375 0.09375 0
-0.5 0.0625 0
-0.46875 0.0625 0
-0.4375 0.0625 0
-0.40625 0.09375 0
-0.375 0.09375 0
-0.40625 0.0625 0
-0.375 0.0625 0
-0.5 0.03125 0
-0.46875 0.03125 0
-0.4375 0.03125 0
-0.5 0 0
-0.46875 0 0
-0.4375 0 0
-0.40625 0.03125 0
-0.375 0.03125 0
-0.40625 0 0
-0.375 0 0
-0.34375 0.09375 0
-0.3125 0.09375 0
-0.34375 0.0625 0
-0.3125 0.0625 0
-0.28125 0.09375 0
-0.25 0.09375 0
-0.28125 0.0625 0
-0.25 0.0625 0
-0.34375 0.03125 0
-0.3125 0.03125 0
-0.34375 0 0
-0.3125 0 0
-0.28125 0.03125 0
-0.25 0.03125 0
-0.28125 0 0
-0.25 0 0
-0.21875 0.21875 0
-0.1875 0.21875 0
-0.21875 0.1875 0
-0.1875 0.1875 0
-0.15625 0.21875 0
-0.125 0.21875 0
-0.15625 0.1875 0
-0.125 0.1875 0
-0.21875 0.15625 0
-0.1875 0.15625 0
-0.21875 0.125 0
-0.1875 0.125 0
-0.15625 0.15625 0
-0.125 0.15625 0
-0.15625 0.125 0
-0.125 0.125 0
-0.09375 0.21875 0
-0.0625 0.21875 0
-0.09375 0.1875 0
-0.0625 0.1875 0
-0.03125 0.21875 0
0 0.21875 0
-0.03125 0.1875 0
0 0.1875 0
-0.09375 0.15625 0
-0.0625 0.15625 0
-0.09375 0.125 0
-0.0625 0.125 0
-0.03125 0.15625 0
0 0.15625 0
-0.03125 0.125 0
0 0.125 0
-0.21875 0.09375 0
-0.1875 0.09375 0
-0.21875 0.0625 0
-0.1875 0.0625 0
-0.15625 0.09375 0
-0.125 0.09375 0
-0.15625 0.0625 0
-0.125 0.0625 0
-0.21875 0.03125 0
-0.1875 0.03125 0
-0.21875 0 0
-0.1875 0 0
-0.15625 0.03125 0
-0.125 0.03125 0
-0.15625 0 0
-0.125 0 0
-0.09375 0.09375 0
-0.0625 0.09375 0
-0.09375 0.0625 0
-0.0625 0.0625 0
-0.03125 0.09375 0
0 0.09375 0
-0.03125 0.0625 0
0 0.0625 0
-0.09375 0.03125 0
-0.0625 0.03125 0
-0.09375 0 0
-0.0625 0 0
-0.03125 0.03125 0
0 0.03125 0
-0.03125 0 0
0 0 0
0.03125 0.46875 0
0.03125 0.5 0
0.0625 0.46875 0
0.0625 0.5 0
0.03125 0.4375 0
0.0625 0.4375 0
0.09375 0.46875 0
0.09375 0.5 0
0.125 0.46875 0
0.125 0.5 0
0.09375 0.4375 0
0.125 0.4375 0
0.03125 0.40625 0
0.0625 0.40625 0
0.03125 0.375 0
0.0625 0.375 0
0.09375 0.40625 0
0.125 0.40625 0
0.09375 0.375 0
0.125 0.375 0
0.15625 0.46875 0
0.15625 0.5 0
0.1875 0.46875 0
0.1875 0.5 0
0.15625 0.4375 0
0.1875 0.4375 0
0.21875 0.46875 0
0.21875 0.5 0
0.25 0.46875 0
0.25 0.5 0
0.21875 0.4375 0
0.25 0.4375 0
0.15625 0.40625 0
0.1875 0.40625 0
0.15625 0.375 0
0.1875 0.375 0
0.21875 0.40625 0
0.25 0.40625 0
0.21875 0.375 0
0.25 0.375 0
0.03125 0.34375 0
0.0625 0.34375 0
0.03125 0.3125 0
0.0625 0.3125 0
0.09375 0.34375 0
0.125 0.34375 0
0.09375 0.3125 0
0.125 0.3125 0
0.03125 0.28125 0
0.0625 0.28125 0
0.03125 0.25 0
0.0625 0.25 0
0.09375 0.28125 0
0.125 0.28125 0
0.09375 0.25 0
0.125 0.25 0
0.15625 0.34375 0
0.1875 0.34375 0
0.15625 0.3125 0
0.1875 0.3125 0
0.21875 0.34375 0
0.25 0.34375 0
0.21875 0.3125 0
0.25 0.3125 0
0.15625 0.28125 0
0.1875 0.28125 0
0.15625 0.25 0
0.1875 0.25 0
0.21875 0.28125 0
0.25 0.28125 0
0.21875 0.25 0
0.25 0.25 0
0.28125 0.46875 0
0.28125 0.5 0
0.3125 0.46875 0
0.3125 0.5 0
0.28125 0.4375 0
0.3125 0.4375 0
0.34375 0.46875 0
0.34375 0.5 0
0.375 0.46875 0
0.375 0.5 0
0.34375 0.4375 0
0.375 0.4375 0
0.28125 0.40625 0
0.3125 0.40625 0
0.28125 0.375 0
0.3125 0.375 0
0.34375 0.40625 0
0.375 0.40625 0
0.34375 0.375 0
0.375 0.375 0
0.40625 0.46875 0
0.40625 0.5 0
0.4375 0.46875 0
0.4375 0.5 0
0.40625 0.4375 0
0.4375 0.4375 0
0.46875 0.46875 0
0.46875 0.5 0
0.5 0.46875 0
0.5 0.5 0
0.46875 0.4375 0
0.5 0.4375 0
0.40625 0.40625 0
0.4375 0.40625 0
0.40625 0.375 0
0.4375 0.375 0
0.46875 0.40625 0
0.5 0.40625 0
0.46875 0.375 0
0.5 0.375 0
0.28125 0.34375 0
0.3125 0.34375 0
0.28125 0.3125 0
0.3125 0.3125 0
0.34375 0.34375 0
0.375 0.34375 0
0.34375 0.3125 0
0.375 0.3125 0
0.28125 0.28125 0
0.3125 0.28125 0
0.28125 0.25 0
0.3125 0.25 0
0.34375 0.28125 0
0.375 0.28125 0
0.34375 0.25 0
0.375 0.25 0
0.40625 0.34375 0
0.4375 0.34375 0
0.40625 0.3125 0
0.4375 0.3125 0
0.46875 0.34375 0
0.5 0.34375 0
0.46875 0.3125 0
0.5 0.3125 0
0.40625 0.28125 0
0.4375 0.28125 0
0.40625 0.25 0
0.4375 0.25 0
0.46875 0.28125 0
0.5 0.28125 0
0.46875 0.25 0
0.5 0.25 0
0.03125 0.21875 0
0.0625 0.21875 0
0.03125 0.1875 0
0.0625 0.1875 0
0.09375 0.21875 0
0.125 0.21875 0
0.09375 0.1875 0
0.125 0.1875 0
0.03125 0.15625 0
0.0625 0.15625 0
0.03125 0.125 0
0.0625 0.125 0
0.09375 0.15625 0
0.125 0.15625 0
0.09375 0.125 0
0.125 0.125 0
0.15625 0.21875 0
0.1875 0.21875 0
0.15625 0.1875 0
0.1875 0.1875 0
0.21875 0.21875 0
0.25 0.21875 0
0.21875 0.1875 0
0.25 0.1875 0
0.15625 0.15625 0
0.1875 0.15625 0
0.15625 0.125 0
0.1875 0.125 0
0.21875 0.15625 0
0.25 0.15625 0
0.21875 0.125 0
0.25 0.125 0
0.03125 0.09375 0
0.0625 0.09375 0
0.03125 0.0625 0
0.0625 0.0625 0
0.09375 0.09375 0
0.125 0.09375 0
0.09375 0.0625 0
0.125 0.0625 0
0.03125 0.03125 0
0.0625 0.03125 0
0.03125 0 0
0.0625 0 0
0.09375 0.03125 0
0.125 0.03125 0
0.09375 0 0
0.125 0 0
0.15625 0.09375 0
0.1875 0.09375 0
0.15625 0.0625 0
0.1875 0.0625 0
0.21875 0.09375 0
0.25 0.09375 0
0.21875 0.0625 0
0.25 0.0625 0
0.15625 0.03125 0
0.1875 0.03125 0
0.15625 0 0
0.1875 0 0
0.21875 0.03125 0
0.25 0.03125 0
0.21875 0 0
0.25 0 0
0.28125 0.21875 0
0.3125 0.21875 0
0.28125 0.1875 0
0.3125 0.1875 0
0.34375 0.21875 0
0.375 0.21875 0
0.34375 0.1875 0
0.375 0.1875 0
0.28125 0.15625 0
0.3125 0.15625 0
0.28125 0.125 0
0.3125 0.125 0
0.34375 0.15625 0
0.375 0.15625 0
0.34375 0.125 0
0.375 0.125 0
0.40625 0.21875 0
0.4375 0.21875 0
0.40625 0.1875 0
0.4375 0.1875 0
0.46875 0.21875 0
0.5 0.21875 0
0.46875 0.1875 0
0.5 0.1875 0
0.40625 0.15625 0
0.4375 0.15625 0
0.40625 0.125 0
0.4375 0.125 0
0.46875 0.15625 0
0.5 0.15625 0
0.46875 0.125 0
0.5 0.125 0
0.28125 0.09375 0
0.3125 0.09375 0
0.28125 0.0625 0
0.3125 0.0625 0
0.34375 0.09375 0
0.375 0.09375 0
0.34375 0.0625 0
0.375 0.0625 0
0.28125 0.03125 0
0.3125 0.03125 0
0.28125 0 0
0.3125 0 0
0.34375 0.03125 0
0.375 0.03125 0
0.34375 0 0
0.375 0 0
0.40625 0.09375 0
0.4375 0.09375 0
0.40625 0.0625 0
0.4375 0.0625 0
0.46875 0.09375 0
0.5 0.09375 0
0.46875 0.0625 0
0.5 0.0625 0
0.40625 0.03125 0
0.4375 0.03125 0
0.40625 0 0
0.4375 0 0
0.46875 0.03125 0
0.5 0.03125 0
0.46875 0 0
0.5 0 0
-0.5 -0.03125 0
-0.46875 -0.03125 0
-0.4375 -0.03125 0
-0.5 -0.0625 0
-0.46875 -0.0625 0
-0.4375 -0.0625 0
-0.40625 -0.03125 0
-0.375 -0.03125 0
-0.40625 -0.0625 0
-0.375 -0.0625 0
-0.5 -0.09375 0
-0.46875 -0.09375 0
-0.4375 -0.09375 0
-0.5 -0.125 0
-0.46875 -0.125 0
-0.4375 -0.125 0
-0.40625 -0.09375 0
-0.375 -0.09375 0
-0.40625 -0.125 0
-0.375 -0.125 0
-0.34375 -0.03125 0
-0.3125 -0.03125 0
-0.34375 -0.0625 0
-0.3125 -0.0625 0
-0.28125 -0.03125 0
-0.25 -0.03125 0
-0.28125 -0.0625 0
-0.25 -0.0625 0
-0.34375 -0.09375 0
-0.3125 -0.09375 0
-0.34375 -0.125 0
-0.3125 -0.125 0
-0.28125 -0.09375 0
-0.25 -0.09375 0
-0.28125 -0.125 0
-0.25 -0.125 0
-0.5 -0.15625 0
-0.46875 -0.15625 0
-0.4375 -0.15625 0
-0.5 -0.1875 0
-0.46875 -0.1875 0
-0.4375 -0.1875 0
-0.40625 -0.15625 0
-0.375 -0.15625 0
[...]
POINT_DATA 1089
SCALARS T float
LOOKUP_TABLE default
0
0
0
0
0
0
0
0
0
0
0
0
0
0
0
0
0
0
0
0
0
0
0
0
0
0
0
0
0
0
0
0
0
0
0
0
0
0
0
0
0
0
0
0
0
0
0
0
0
0
0
0
0
0
0
0
0
0
0
0
0
0
0
0
0
0
0
0
0
0
0
0
0
0
0
0
0
0
0
0
0
0
0
0
0
0
0
0
0
0
0
0
0
0
0
0
0
0
0
0
0
0
0
0
0
0
0
0
0
0
0
0
0
0
0
0
0
0
0
0
0
0
0
0
0
0
0
0
0
0
0
0
0
0
0
0
0
0
0
0
0
0
0
0
0
0
0
0
0
0
0
0
0
0
0
0
0
0
0
0
0
0
0
0
0
0
0
0
0
0
0
0
0
0
0
0
0
0
0
0
0
0
0
0
0
0
0
0
0
0
0
0
0
0
0
0
0
0
0
0
0
0
0
0
0
0
0
0
0
0
0
0
0
0
0
0
0
0
0
0
0
0
0.0389978
0
0.191356
0
0
0
0
0
0
0
0
0
0
0
0
0
0
0
0.00814029
0
0
0
0
0
0
0
0
0
0
0.0320653
0.028524
0
0
0.00459905
0
0
0.0546459
0.0885061
0.390654
0.239098
0.439362
0.7366
0.931221
0.370436
0.828941
0.684289
0.992932
0.997502
1
1
1
0.528835
0.518856
0.996769
0.990332
0.410449
0.20393
0.90585
0.691161
1
1
1
1
1
0.987231
1
1
0
0
0
0
0
0
0
0
0
0
0
0
0
0
0
0
0
0
0
0
0
0
0
0
0
0
0
0
0
0
0
0
0
0
0
0
0
0
1.49549e-06
0.00185619
0
0
0
0
0
0
0
0
0
0
0
0
0
0
0
0
0
0.034449
0.000332722
0.227843
0.217113
0.432258
0.660173
0.930402
0.0225706
0.465632
0.0335027
0.528663
0.943061
1
0.99516
1
0
0
0
0
0
0
0
0
0
0
0
0
0
0
0.00294587
0.00109117
0
0
0
0
0
0
0
0
0
0
0
0
0
0
0
0
0
0
0
0
0
0
0
0
0.471496
0.311744
0.96855
0.805775
0.0898423
0
0.381224
0.0462593
1
0.995122
1
1
0.660316
0.165194
0.720504
0.220504
0
0
0
0
0
0
0
0
0
0
0
0
0
0
0
0
0
0
0
0
0
0
0
0
0
0
0
0
0
0
0
0
0.0112649
0.392685
0
0.137857
0.88142
1
0.473633
0.738267
0
0.00159705
0
0
0.0873728
0.238267
0
0
0.0384115
0
0.343302
0.067659
0
0
0
0
0.785319
0.319718
0.980429
0.626695
0.0216302
0
0.146266
0
0
0
0
0
0
0
0
0
0
0
0
0
0
0
0
0.00528855
1
0.964894
0.777858
0.615031
0.582523
0.117629
0.255724
0.0160597
0.277858
0.150137
0
0
0.0247703
0
0
0
0
0
0
0
0
0
0
0
0
0
0
0
0
0
0
0
0
0
0
0
0
0
0
0
0
0
0.154784
0.360833
0
0
0.341202
0.131637
0
0
0
0
0
0
0
0
0
0
0.00177287
0
0
0
0
0
0
0
0
0
0
0
0
0
0
0
0
0
0
0
0
0
0
0
0
0
0
0
0
0
0
0.371151
0
0.458052
0
0
0
0
0
0.455313
0
0.362163
0
0
0
0
0
0
0
0
0
0
0
0
0
0
0
0
0
0
0
0
0
0
0
0
0
0.177475
0
0.0313652
0
0
0
0
0
0
0
0
0.871151
1
0.958052
1
1
1
1
1
0.955313
1
0.862163
1
1
1
1
1
1
1
1
1
1
1
1
1
1
1
1
1
1
1
1
1
0.666341
0.988866
0.342201
0.802784
1
1
0.991948
1
0.0719699
0.350096
0
0.0361776
0.687385
0.889526
0.195437
0.389631
1
1
1
1
1
1
1
0.981891
0.980258
0.974887
0.481682
0.476208
0.873528
0.661686
0.37353
0.179795
0
0
0
0
0
0
0
0
0
0
0
0
0
0
0
0
0
0
0
0
0
0
0
0
0
0
0
0
0
0
0
0
0
0
0
0
0
0
0
0
0
0
0
0
0
0
0
0
0
0
0
0
0
0
0
0
0
0
0
0
0
0
0
0
0
0
0
0
0
0
0
0
0
0
0
0
0
0.000105153
0
0
0
0
0
0
0
0
0
0
0.00142421
0.00132146
0
0
2.40295e-06
0
0
0
0
0
0
0
0
0
0
0
0
0
0
0
0
0
0
0
0
0
0
0
0
0
0
0
0
0
0
0
0
0
0
0
0
0
0
0
0
0
0
0
1
0.817621
1
0.908242
0.31762
0
0.408242
0
1
0.908538
1
0.817243
0.408538
0
0.317243
0
0
0
0
0
0
0.10377
0
0.210169
0
0
0
0
0
0.13295
0
0.0212622
0.980615
0.622157
0.772613
0.308301
0.141543
0
0.0175798
0
0.323161
0.0601069
0.0311629
0
0
0
0
0
0
0
0
0
0
0
0
0
0
0
0
0
0
0
0
0
0.503266
0.860833
0.710169
1
0.840874
0.44876
0.999672
0.648979
0.583146
0.950197
0.221674
0.461391
0.930805
0.523049
0.442087
0.191495
0.0692237
0
0.149308
0
0
0
0
0
0.0922439
0
0.0103871
0
0
0
0
0
0.000215432
0.0111942
0
0
0.0112815
0.00030275
0
0
0
0
0
0
0
0
0
0
0
0
0
0
0
0
0
0
0
0
0
0
0
0
0
0
0
0
0
0
0
0
0
0
0
0
0
0
0
0
0
0
0
0
0
0
0
0
0
0
0
0
0
0
0
0
0
0
0
0
0
0
0
0
0
0
0
0
0
0
0
0
0
0
0
0
0
0
0
0
0
0
0
0
0
0
0
0
0
0
0
0
0
0
0
0
0
0
0
0
0
0
0
0
0
0
0
0
0
0
0
0
0
0
0
0
0
0
0
0
0
0
0
0
0
0
0
0
0
0
0
0
0
0
0
0
0
0
0
0
0
0
0
0
0
0
0
0
0
0
0
0
0
0

SCALARS P float
LOOKUP_TABLE default
-0.0112043
-0.0112127
-0.0111976
-0.0112062
-0.011225
-0.0112186
-0.0112099
-0.0112179
-0.0112303
-0.0112396
-0.0112332
-0.011256
-0.0112494
-0.0112451
-0.0112619
-0.0112107
-0.0112193
-0.0112326
-0.0112055
-0.0112178
-0.0112334
-0.0112485
-0.0112666
-0.0112512
-0.0112712
-0.0112735
-0.0112667
-0.0112911
-0.0112843
-0.0112799
-0.0112982
-0.0113078
-0.0113014
-0.0113227
-0.0113169
-0.0113156
-0.011331
-0.0112862
-0.0113061
-0.0112929
-0.0113154
-0.0113253
-0.0113424
-0.0113374
-0.0113575
-0.0112052
-0.0112175
-0.0112334
-0.0111847
-0.0112079
-0.0112287
-0.0112527
-0.0112748
-0.0112517
-0.011277
-0.0111865
-0.0112075
-0.011227
-0.0111979
-0.0112084
-0.0112234
-0.0112505
-0.0112777
-0.0112456
-0.0112744
-0.0112994
-0.0113256
-0.0113054
-0.0113363
-0.0113518
-0.0113764
-0.0113683
-0.0113994
-0.0113098
-0.0113467
-0.011311
-0.0113553
-0.0113864
-0.0114268
-0.0114054
-0.011459
-0.0113345
-0.0113296
-0.0113418
-0.0113379
-0.011343
-0.0113505
-0.0113437
-0.0113404
-0.0113396
-0.0113365
-0.0113523
-0.011348
-0.0113559
-0.0113644
-0.0113736
-0.0113841
-0.0113666
-0.011362
-0.0113871
-0.0113819
-0.0113298
-0.0113264
-0.011315
-0.0113113
-0.0113378
-0.0113225
-0.0112968
-0.0112927
-0.0112763
-0.0112723
-0.0113035
-0.011282
-0.0113507
-0.0113337
-0.0113689
-0.0113491
-0.0113125
-0.0112883
-0.0113246
-0.0112971
-0.0113967
-0.0114104
-0.0114261
-0.0114449
-0.011415
-0.011409
-0.0114519
-0.011445
-0.011463
-0.0114898
-0.0115092
-0.0115486
-0.0115011
-0.0114933
-0.0115678
-0.0115593
-0.011393
-0.0113686
-0.0114245
-0.0113935
-0.0113386
-0.0113055
-0.0113561
-0.0113166
-0.011466
-0.0114247
-0.0115212
-0.011464
-0.0113766
-0.0113279
-0.0113995
-0.0113373
-0.0111837
-0.0111973
-0.0112124
-0.0111789
-0.0111849
-0.0111958
-0.0112343
-0.0112651
-0.0112157
-0.0112479
-0.0111802
-0.0111718
-0.0111745
-0.0111711
-0.0111517
-0.0111459
-0.0111897
-0.0112217
-0.0111548
-0.0111838
-0.0113068
-0.0113605
-0.0112953
-0.01136
-0.0114243
-0.0114961
-0.0114404
-0.0115367
-0.0112735
-0.0113491
-0.0112366
-0.0113217
-0.0114507
-0.0115818
-0.0114462
-0.0116202
-0.0111525
-0.0111232
-0.0111085
-0.0111335
-0.0110929
-0.011066
-0.0111085
-0.0111301
-0.011052
-0.0110587
-0.0111204
-0.0110631
-0.0110195
-0.0111011
-0.0110333
-0.0109731
-0.0109852
-0.0109652
-0.0109144
-0.0108565
-0.0111784
-0.0112673
-0.0110911
-0.0111682
-0.0114124
-0.0116396
-0.0113143
-0.0115791
-0.0109616
-0.0109928
-0.0108003
-0.0107572
-0.0110748
-0.00879127
-0.0107353
0.000736363
-0.0115678
-0.0116282
-0.0116406
-0.0117326
-0.0116605
-0.011652
-0.0117888
-0.0117834
-0.0117387
-0.0118877
-0.0118609
-0.0121051
-0.0119888
-0.0119868
-0.0122867
-0.0119582
-0.011597
-0.0115134
-0.011699
-0.0115721
-0.0114242
-0.0113451
-0.0114485
-0.0113479
-0.0118417
-0.0116344
-0.0105886
-0.0104515
-0.0114599
-0.0113378
-0.0113424
-0.011343
-0.0120152
-0.00909856
-0.00655499
0.0114242
0.00189938
0.0140558
0.0322835
0.0442858
0.0107415
0.0379444
0.0294644
0.047269
0.0481923
0.048456
0.0479469
0.0481483
0.0194794
0.0187854
0.0483738
0.047548
0.0122299
0.000163252
0.0418493
0.028898
0.0484059
0.0482171
0.0481951
0.0481048
0.0479671
0.0468724
0.0479146
0.0476533
-0.0112553
-0.0112516
-0.0112341
-0.011231
-0.0112597
-0.0112368
-0.0112166
-0.0112134
-0.0111996
-0.0111969
-0.011218
-0.0111973
-0.0112629
-0.0112359
-0.0112681
-0.0112375
-0.011212
-0.0111836
-0.01121
-0.0111746
-0.0111953
-0.0111892
-0.011189
-0.011182
-0.0111946
-0.0111835
-0.0112082
-0.0111888
-0.0112376
-0.0112018
-0.0112156
-0.0112714
-0.0111789
-0.0111522
-0.0111616
-0.0110842
-0.0112186
-0.0113263
-0.0111797
-0.0112657
-0.0112698
-0.0112327
-0.0112759
-0.0112381
-0.0111917
-0.0111384
-0.0111944
-0.0111676
-0.0112808
-0.0112355
-0.0112802
-0.0112236
-0.0111862
-0.0111621
-0.0111682
-0.0111352
-0.0110769
-0.0067869
-0.0110461
0.0164735
0.0148581
0.0400561
0.0679565
0.0997571
-0.00800621
0.0449777
-0.00642309
0.0526627
0.101476
0.108187
0.107562
0.108132
-0.0112347
-0.0112024
-0.0112488
-0.01121
-0.0112662
-0.0112966
-0.0112375
-0.0112046
-0.0112124
-0.0111937
-0.0112758
-0.0112261
-0.011294
-0.0113532
-0.0111536
-0.0113953
-0.0113271
-0.0112346
-0.0114
-0.0112013
-0.0112069
-0.011191
-0.0111989
-0.0111887
-0.0112208
-0.0112059
-0.0111992
-0.0111908
-0.0112043
-0.0111966
-0.0112059
-0.0112099
-0.0112341
-0.0112078
-0.0112163
-0.0111876
-0.0112079
-0.0112107
-0.0111987
-0.0112055
0.0444131
0.0248673
0.104008
0.0840106
-0.00116038
-0.011189
0.0331976
-0.00606475
0.108247
0.107749
0.108271
0.108551
0.066683
0.00755431
0.0741387
0.0141635
-0.0112309
-0.0111922
-0.0110593
-0.0111105
-0.0112016
-0.0112052
-0.0111607
-0.0111847
-0.0110682
-0.0111313
-0.011217
-0.0112124
-0.0111648
-0.0111865
-0.0111954
-0.0111979
-0.0112802
-0.0112153
-0.0112759
-0.0111994
-0.0111505
-0.0111021
-0.0111096
-0.0110187
-0.0112741
-0.0111984
-0.011308
-0.0112365
-0.0110923
-0.011003
-0.0110808
-0.0109805
-0.00941197
0.036725
-0.0109123
0.00617016
0.0945636
0.108013
0.0464443
0.0774992
-0.0109241
-0.0105492
-0.0109103
-0.0108553
7.09396e-05
0.0180651
-0.0108806
-0.0109914
-0.00932556
-0.0113071
0.00836014
-0.00755853
-0.0110492
-0.0109349
-0.0110638
-0.0108833
0.0345381
0.00733358
0.0462423
0.0255603
-0.00960068
-0.0106778
-0.00210705
-0.0103967
-0.0108681
-0.0108452
-0.0107963
-0.0107875
-0.0108823
-0.0109824
-0.0108319
-0.0109429
-0.0106469
-0.0106751
-0.010458
-0.010535
-0.010725
-0.0108459
-0.010593
-0.0097552
0.108193
0.104131
0.0819813
0.0620616
0.0580045
0.00251388
0.0189629
-0.00932045
0.022338
0.00641458
-0.0111469
-0.0114483
-0.00873627
-0.0113487
-0.0115007
-0.0113134
-0.0110724
-0.0111423
-0.0111306
-0.0111608
-0.0111671
-0.0111837
-0.0111707
-0.0111789
-0.0112747
-0.0112259
-0.0112694
-0.0112315
-0.0111922
-0.0111802
-0.0111927
-0.0111711
-0.0111219
-0.011332
-0.0110995
-0.0113298
-0.011394
-0.0113008
-0.0113785
-0.0112677
-0.0110201
-0.0113381
0.0169139
0.0535161
-0.0114431
-0.0113114
0.0489661
0.0115038
-0.0112693
-0.0112279
-0.0112569
-0.011218
-0.0111829
-0.0111525
-0.0111718
-0.0111335
-0.011306
-0.0112426
-0.0109414
-0.0112109
-0.011175
-0.0111204
-0.0111542
-0.0111011
-0.0111127
-0.0110209
-0.0109384
-0.0111315
-0.0110215
-0.010921
-0.0108523
-0.0107556
-0.0108149
-0.0106949
-0.0111051
-0.0110115
-0.0109157
-0.0110845
-0.0110111
-0.0109316
-0.0108108
-0.0106947
-0.0108443
-0.0107533
-0.0106542
-0.01056
-0.0105755
-0.010474
-0.0104813
0.0114199
-0.0103811
0.0164657
-0.0105917
-0.0105232
-0.010686
-0.0106623
-0.0104679
0.016285
-0.0106705
0.0108409
-0.0110721
-0.0110216
-0.0109645
-0.0110682
-0.0110378
-0.0110024
-0.0109031
-0.0108449
-0.0109661
-0.0109355
-0.0110728
-0.0110582
-0.0110401
-0.0110831
-0.0110796
-0.0110742
-0.0110222
-0.0110082
-0.0110692
-0.0110663
-0.0108128
-0.0108242
-0.0109246
-0.0109473
-0.0108885
-0.000200832
-0.0110227
-0.00913659
-0.0110036
-0.0110153
-0.011068
-0.01108
-0.0110618
-0.0111543
-0.0111222
-0.0112142
0.0402432
0.0473965
0.0451808
0.0472857
0.0477388
0.0479657
0.04762
0.0478526
0.045059
0.047276
0.0397896
0.0473427
0.0475788
0.0478027
0.0475949
0.0478056
0.048057
0.0480281
0.0479669
0.0479761
0.0478997
0.047688
0.047891
0.0477255
0.0479247
0.0479544
0.0479249
0.0479566
0.0478983
0.0477759
0.0479058
0.0478093
0.0283921
0.0468969
0.00929386
0.0363017
0.0476619
0.0478578
0.0473747
0.0479909
-0.00689633
0.00941295
-0.0113929
-0.00951084
0.029298
0.0414622
-0.000145093
0.0114867
0.0479629
0.0479761
0.0480516
0.0480097
0.0479049
0.0478292
0.0478766
0.0466698
0.046899
0.0463942
0.0169818
0.0165887
0.0400824
0.0274152
0.0104257
-0.00104074
-0.0110972
-0.0111014
-0.0111047
-0.011113
-0.0111218
-0.0111306
-0.0111089
-0.0111146
-0.0111404
-0.0111518
-0.0111296
-0.0111408
-0.0111528
-0.0111455
-0.0111577
-0.0111712
-0.011166
-0.0111809
-0.011186
-0.0112025
-0.0111238
-0.0111413
-0.0111662
-0.0111874
-0.0111827
-0.0112638
-0.0112254
-0.0112894
-0.0111985
-0.011221
-0.0112212
-0.0112433
-0.011254
-0.0113013
-0.0112714
-0.0113068
-0.0111607
-0.0111727
-0.0111866
-0.0111745
-0.0111858
-0.0111993
-0.0112019
-0.0112189
-0.0112146
-0.0112314
-0.0111865
-0.0111968
-0.0112098
-0.0111966
-0.0112062
-0.0112186
-0.0112248
-0.0112413
-0.0112332
-0.0112494
-0.0112376
-0.0112584
-0.0112495
-0.011269
-0.0112822
-0.011309
-0.0112895
-0.0113107
-0.0112589
-0.0112771
-0.0112667
-0.0112843
-0.0112955
-0.011313
-0.0113014
-0.0113169
-0.0114065
-0.0115983
-0.0113856
-0.0114911
-0.0117403
-0.0117495
-0.0115609
-0.0115643
-0.0113622
-0.0114205
-0.0113471
-0.0113827
-0.0114559
-0.0114573
-0.0114024
-0.0114008
-0.0116363
-0.0115138
-0.0115036
-0.0114216
-0.0114058
-0.011364
-0.0113395
-0.0113011
-0.0114233
-0.0113732
-0.011377
-0.0113415
-0.0113192
-0.0112825
-0.0113028
-0.0112715
-0.0113362
-0.0113585
-0.0113303
-0.0113452
-0.0113699
-0.0113676
-0.0113517
-0.0113485
-0.0113281
-0.0113387
-0.0113296
-0.0113379
-0.0113427
-0.0113391
-0.0113404
-0.0113365
-0.0113513
-0.0113258
-0.0113355
-0.0113155
-0.0112964
-0.0112687
-0.0112919
-0.011268
-0.0113281
-0.0113113
-0.0113264
-0.0113113
-0.011291
-0.0112693
-0.0112927
-0.0112723
0.0474507
0.0366588
0.0475097
0.0419986
0.00790051
-0.0102301
0.0132356
-0.0101762
0.0476174
0.0421688
0.0477137
0.0369389
0.013243
-0.0103155
0.00779807
-0.0105538
-0.0103075
-0.0103776
-0.0102367
-0.0102651
-0.0103655
0.008494
-0.0101764
0.0282005
-0.0103011
-0.010233
-0.0104556
-0.0103177
-0.0100914
0.0144974
-0.0101865
-0.00590506
0.0466194
0.0254086
0.0341516
0.006699
-0.0027574
-0.0108037
-0.0102139
-0.0109701
0.00741346
-0.0079632
-0.00969403
-0.0113531
-0.0112388
-0.011034
-0.0112064
-0.0110727
-0.0106496
-0.0105145
-0.0108027
-0.0106768
-0.0104507
-0.0103039
-0.0106206
-0.0105611
-0.0109025
-0.0108048
-0.0109771
-0.010904
-0.0107593
-0.0107299
-0.0108663
-0.010849
0.0804381
0.14475
0.118534
0.170936
0.140646
0.0687341
0.171641
0.10611
0.096136
0.162051
0.030533
0.0737313
0.158596
0.0837201
0.069883
0.0236233
0.000328889
-0.0113403
0.0143128
-0.0114709
-0.0112007
-0.0111127
-0.0112687
-0.0111315
0.00484157
-0.0113508
-0.00952052
-0.0112483
-0.0112274
-0.0111051
-0.0111762
-0.0110845
-0.0104468
-0.0083916
-0.0106895
-0.0108605
-0.00845166
-0.0110589
-0.0109103
-0.0110558
-0.0107917
-0.0108908
-0.0108789
-0.0109319
-0.0109407
-0.0110269
-0.0109682
-0.0110235
-0.0111986
-0.0111582
-0.0111123
-0.0111086
-0.0111292
-0.0110721
-0.0110996
-0.0110682
-0.0110708
-0.011083
-0.0110588
-0.0110758
-0.011086
-0.0110728
-0.0110848
-0.0110831
-0.0113511
-0.0112719
-0.0112804
-0.01123
-0.0111825
-0.0110959
-0.0111738
-0.011116
-0.0112546
-0.0112157
-0.0112447
-0.0112132
-0.011175
-0.0111335
-0.0111818
-0.0111505
-0.0110281
-0.0109746
-0.0110675
-0.0110282
-0.0109441
-0.010931
-0.0110042
-0.0109934
-0.0110978
-0.0110687
-0.0111236
-0.0111017
-0.01105
-0.0110411
-0.0110876
-0.0110806
-0.011243
-0.011216
-0.0112447
-0.0112211
-0.0111902
-0.0111654
-0.0111993
-0.0111789
-0.0112477
-0.0112261
-0.0112516
-0.011231
-0.011207
-0.0111894
-0.0112134
-0.0111969
-0.011145
-0.0111285
-0.0111635
-0.011151
-0.0111187
-0.0111141
-0.0111455
-0.0111442
-0.0111782
-0.0111691
-0.0111892
-0.011182
-0.0111692
-0.0111733
-0.0111888
-0.0112018
-0.0109446
-0.0109752
-0.0109985
-0.0110151
-0.0110016
-0.0110369
-0.0110329
-0.0110562
-0.0110423
-0.0110519
-0.0110801
-0.0110854
-0.0110638
-0.0110792
-0.0110928
-0.0111028
-0.0110633
-0.0110802
-0.0110761
-0.0110914
-0.0110919
-0.0110972
-0.0111039
-0.011113
-0.0110939
-0.0111069
-0.0111133
-0.0111238
-0.0111188
-0.0111296
-0.0111345
-0.0111455
-0.0111133
-0.0111167
-0.0111436
-0.0111466
-0.0111208
-0.0111266
-0.011148
-0.0111497
-0.0111733
-0.0111773
-0.0112024
-0.01121
-0.0111755
-0.011172
-0.0112046
-0.0111937
-0.0111335
-0.0111414
-0.0111533
-0.0111585
-0.0111503
-0.0111607
-0.0111653
-0.0111745
-0.0111723
-0.0111741
-0.011191
-0.0111887
-0.0111787
-0.0111865
-0.0111908
-0.0111976

SCALARS U float
LOOKUP_TABLE default
0.0200831
0.01997
0.0197531
0.0196614
0.0198637
0.019577
0.0204089
0.0202606
0.0201232
0.0197644
0.0194931
0.0196748
0.019412
0.0199971
0.0198849
0.0206958
0.020512
0.0203404
0.0208938
0.0206866
0.0204884
0.0201812
0.0200372
0.0202984
0.0201185
0.0195982
0.0193376
0.0195388
0.0192763
0.0197896
0.0197141
0.0195026
0.0192377
0.0194964
0.0192337
0.0196625
0.019639
0.0199112
0.0198059
0.0199532
0.0198064
0.0197253
0.0196736
0.0196842
0.0195939
0.0209884
0.0207794
0.0205642
0.0209921
0.0207912
0.0205641
0.0203443
0.0201221
0.0203127
0.0200391
0.0208973
0.0207376
0.0205061
0.0208209
0.0206884
0.0204332
0.0202161
0.0198754
0.0200831
0.0196521
0.0199058
0.0197021
0.0197562
0.0194751
0.0195221
0.0193789
0.0192143
0.0189962
0.0195034
0.0191166
0.0191637
0.018636
0.0187418
0.0184124
0.0181006
0.0175983
0.0195285
0.0192793
0.0196058
0.0193887
0.0196487
0.0196957
0.0197325
0.0195729
0.0199053
0.0198308
0.0197814
0.019902
0.0196558
0.0196769
0.0195443
0.0195451
0.0197384
0.0198378
0.0196018
0.019714
0.0201095
0.0201419
0.0203213
0.0204687
0.0200459
0.0201955
0.0205127
0.0207663
0.0206601
0.0209961
0.0203305
0.0204334
0.0199638
0.0200992
0.0198688
0.0200437
0.0202241
0.0203208
0.0202131
0.0203528
0.0192899
0.019275
0.0188523
0.0188207
0.0193477
0.0195132
0.0189315
0.0192009
0.0181812
0.0181175
0.0172121
0.0170648
0.0182833
0.018718
0.017282
0.0179587
0.0197531
0.0200316
0.0195996
0.0200661
0.0203089
0.0205462
0.0205318
0.0209361
0.0193741
0.0201398
0.0190226
0.0202603
0.0208862
0.0215035
0.02142
0.0222872
0.0208513
0.020681
0.0203701
0.0210029
0.0207418
0.0203526
0.0199404
0.0194027
0.0198364
0.0191903
0.0211031
0.0207922
0.0203634
0.0210563
0.0207984
0.0204163
0.0198009
0.0190828
0.0198898
0.0191783
0.0187762
0.0180704
0.0184156
0.0174907
0.017308
0.0165245
0.0163994
0.0151418
0.018177
0.0170011
0.0182033
0.0167912
0.0154539
0.0134703
0.0147267
0.0119243
0.0209371
0.0208018
0.0205516
0.0207702
0.0208191
0.0207918
0.0201639
0.0195819
0.0206688
0.020398
0.0205663
0.0208444
0.0211142
0.0203293
0.0208423
0.0214372
0.0213741
0.0216164
0.022142
0.0230232
0.0186801
0.0172117
0.0198514
0.0188252
0.0149441
0.0120244
0.0173016
0.0158891
0.02179
0.0218618
0.0241666
0.0257472
0.0220983
0.0231442
0.0280179
0.030959
0.0158425
0.0154778
0.0138971
0.0130608
0.0156958
0.0167261
0.0131733
0.0147175
0.0113371
0.00975563
0.00891331
0.00691479
0.00968963
0.0119314
0.00721562
0.010286
0.0184578
0.0204857
0.0175341
0.0208783
0.0223218
0.023547
0.0238336
0.0256198
0.0161875
0.0212869
0.015389
0.0213447
0.0258461
0.0285778
0.0270046
0.030926
0.00942405
0.00873622
0.0157142
0.0175123
0.0106654
0.0142136
0.0203712
0.0221728
0.0253625
0.0280424
0.0337845
0.0350706
0.0293353
0.027659
0.0335858
0.029295
0.0180332
0.0216789
0.0219446
0.0205708
0.0254759
0.0292912
0.01979
0.0210298
0.0233544
0.0180842
0.0233664
0.0169966
0.0135409
0.0113529
0.0109787
0.00635196
0.0207479
0.0211341
0.0207797
0.0211814
0.0204917
0.0205097
0.0207608
0.0211486
0.0207367
0.0210736
0.020487
0.0204836
0.0203755
0.0203892
0.0204462
0.0204897
0.0203553
0.0203391
0.0204614
0.0203965
0.0207126
0.0209699
0.0207738
0.0208847
0.0204933
0.020696
0.02082
0.0207832
0.0206438
0.0205795
0.0208943
0.0206676
0.0203058
0.0206409
0.0201981
0.0204266
0.0209717
0.0205029
0.0207562
0.0201987
0.0207277
0.0208411
0.021269
0.0215327
0.0208748
0.0208215
0.0218177
0.0221399
0.0219655
0.0223103
0.0227933
0.0230172
0.0226854
0.0231268
0.0231142
0.0231415
0.0206435
0.0204405
0.0227909
0.0228733
0.0204051
0.0205879
0.0221481
0.0222619
0.0238539
0.0239738
0.0230216
0.0224489
0.0232087
0.0229133
0.022012
0.0220927
0.0204741
0.0203783
0.0203968
0.0202248
0.0205048
0.0205415
0.0203653
0.0201178
0.0203824
0.0200518
0.0205993
0.0207304
0.0203412
0.02064
0.0203363
0.020983
0.0207805
0.0210413
0.0209861
0.0212903
0.0203629
0.0199868
0.0202911
0.0199126
0.0207669
0.020681
0.0201915
0.0198303
0.0200831
0.0197418
0.0205531
0.0204089
0.0211582
0.0210368
0.0214965
0.0212944
0.0208776
0.0206958
0.0211045
0.0208938
0.02119
0.0213856
0.0222769
0.0218959
0.0211053
0.0214768
0.0223463
0.0225688
0.0222211
0.0215848
0.021658
0.0206859
0.0219205
0.0217079
0.0196719
0.0193239
0.0216522
0.0213685
0.0219323
0.0214008
0.0211938
0.0209884
0.021193
0.0209921
0.0211728
0.0210452
0.0199652
0.0205897
0.020997
0.0208973
0.0208027
0.0208209
0.0240336
0.0239558
0.0260019
0.0253546
0.0235967
0.0231103
0.0242603
0.0230908
0.0289281
0.027504
0.0317812
0.0298389
0.0254148
0.0234503
0.0267595
0.0239526
0.0224794
0.021581
0.0219888
0.0210444
0.0211326
0.0213809
0.0207295
0.0210772
0.0219382
0.0210996
0.0219885
0.0210607
0.0208972
0.0209951
0.0207671
0.0204863
0.031312
0.0301267
0.0235394
0.0247781
0.0269394
0.023681
0.0237282
0.0214997
0.0125701
0.0155559
0.0048605
0.00675864
0.0172564
0.0171683
0.009633