# vtk DataFile Version 2.0
Gerris simulation version 1.3.2 (131206-155120)
ASCII
DATASET UNSTRUCTURED_GRID

POINTS 1089 float
-0.5 0.46875 0
-0.46875 0.46875 0
-0.5 0.5 0
-0.46875 0.5 0
-0.4375 0.46875 0
-0.4375 0.5 0
-0.5 0.4375 0
-0.46875 0.4375 0
-0.4375 0.4375 0
-0.40625 0.46875 0
-0.40625 0.5 0
-0.375 0.46875 0
-0.375 0.5 0
-0.40625 0.4375 0
-0.375 0.4375 0
-0.5 0.40625 0
-0.46875 0.40625 0
-0.4375 0.40625 0
-0.5 0.375 0
-0.46875 0.375 0
-0.4375 0.375 0
-0.40625 0.40625 0
-0.375 0.40625 0
-0.40625 0.375 0
-0.375 0.375 0
-0.34375 0.46875 0
-0.34375 0.5 0
-0.3125 0.46875 0
-0.3125 0.5 0
-0.34375 0.4375 0
-0.3125 0.4375 0
-0.28125 0.46875 0
-0.28125 0.5 0
-0.25 0.46875 0
-0.25 0.5 0
-0.28125 0.4375 0
-0.25 0.4375 0
-0.34375 0.40625 0
-0.3125 0.40625 0
-0.34375 0.375 0
-0.3125 0.375 0
-0.28125 0.40625 0
-0.25 0.40625 0
-0.28125 0.375 0
-0.25 0.375 0
-0.5 0.34375 0
-0.46875 0.34375 0
-0.4375 0.34375 0
-0.5 0.3125 0
-0.46875 0.3125 0
-0.4375 0.3125 0
-0.40625 0.34375 0
-0.375 0.34375 0
-0.40625 0.3125 0
-0.375 0.3125 0
-0.5 0.28125 0
-0.46875 0.28125 0
-0.4375 0.28125 0
-0.5 0.25 0
-0.46875 0.25 0
-0.4375 0.25 0
-0.40625 0.28125 0
-0.375 0.28125 0
-0.40625 0.25 0
-0.375 0.25 0
-0.34375 0.34375 0
-0.3125 0.34375 0
-0.34375 0.3125 0
-0.3125 0.3125 0
-0.28125 0.34375 0
-0.25 0.34375 0
-0.28125 0.3125 0
-0.25 0.3125 0
-0.34375 0.28125 0
-0.3125 0.28125 0
-0.34375 0.25 0
-0.3125 0.25 0
-0.28125 0.28125 0
-0.25 0.28125 0
-0.28125 0.25 0
-0.25 0.25 0
-0.21875 0.46875 0
-0.21875 0.5 0
-0.1875 0.46875 0
-0.1875 0.5 0
-0.21875 0.4375 0
-0.1875 0.4375 0
-0.15625 0.46875 0
-0.15625 0.5 0
-0.125 0.46875 0
-0.125 0.5 0
-0.15625 0.4375 0
-0.125 0.4375 0
-0.21875 0.40625 0
-0.1875 0.40625 0
-0.21875 0.375 0
-0.1875 0.375 0
-0.15625 0.40625 0
-0.125 0.40625 0
-0.15625 0.375 0
-0.125 0.375 0
-0.09375 0.46875 0
-0.09375 0.5 0
-0.0625 0.46875 0
-0.0625 0.5 0
-0.09375 0.4375 0
-0.0625 0.4375 0
-0.03125 0.46875 0
-0.03125 0.5 0
0 0.46875 0
0 0.5 0
-0.03125 0.4375 0
0 0.4375 0
-0.09375 0.40625 0
-0.0625 0.40625 0
-0.09375 0.375 0
-0.0625 0.375 0
-0.03125 0.40625 0
0 0.40625 0
-0.03125 0.375 0
0 0.375 0
-0.21875 0.34375 0
-0.1875 0.34375 0
-0.21875 0.3125 0
-0.1875 0.3125 0
-0.15625 0.34375 0
-0.125 0.34375 0
-0.15625 0.3125 0
-0.125 0.3125 0
-0.21875 0.28125 0
-0.1875 0.28125 0
-0.21875 0.25 0
-0.1875 0.25 0
-0.15625 0.28125 0
-0.125 0.28125 0
-0.15625 0.25 0
-0.125 0.25 0
-0.09375 0.34375 0
-0.0625 0.34375 0
-0.09375 0.3125 0
-0.0625 0.3125 0
-0.03125 0.34375 0
0 0.34375 0
-0.03125 0.3125 0
0 0.3125 0
-0.09375 0.28125 0
-0.0625 0.28125 0
-0.09375 0.25 0
-0.0625 0.25 0
-0.03125 0.28125 0
0 0.28125 0
-0.03125 0.25 0
0 0.25 0
-0.5 0.21875 0
-0.46875 0.21875 0
-0.4375 0.21875 0
-0.5 0.1875 0
-0.46875 0.1875 0
-0.4375 0.1875 0
-0.40625 0.21875 0
-0.375 0.21875 0
-0.40625 0.1875 0
-0.375 0.1875 0
-0.5 0.15625 0
-0.46875 0.15625 0
-0.4375 0.15625 0
-0.5 0.125 0
-0.46875 0.125 0
-0.4375 0.125 0
-0.40625 0.15625 0
-0.375 0.15625 0
-0.40625 0.125 0
-0.375 0.125 0
-0.34375 0.21875 0
-0.3125 0.21875 0
-0.34375 0.1875 0
-0.3125 0.1875 0
-0.28125 0.21875 0
-0.25 0.21875 0
-0.28125 0.1875 0
-0.25 0.1875 0
-0.34375 0.15625 0
-0.3125 0.15625 0
-0.34375 0.125 0
-0.3125 0.125 0
-0.28125 0.15625 0
-0.25 0.15625 0
-0.28125 0.125 0
-0.25 0.125 0
-0.5 0.09375 0
-0.46875 0.09375 0
-0.4375 0.09375 0
-0.5 0.0625 0
-0.46875 0.0625 0
-0.4375 0.0625 0
-0.40625 0.09375 0
-0.375 0.09375 0
-0.40625 0.0625 0
-0.375 0.0625 0
-0.5 0.03125 0
-0.46875 0.03125 0
-0.4375 0.03125 0
-0.5 0 0
-0.46875 0 0
-0.4375 0 0
-0.40625 0.03125 0
-0.375 0.03125 0
-0.40625 0 0
-0.375 0 0
-0.34375 0.09375 0
-0.3125 0.09375 0
-0.34375 0.0625 0
-0.3125 0.0625 0
-0.28125 0.09375 0
-0.25 0.09375 0
-0.28125 0.0625 0
-0.25 0.0625 0
-0.34375 0.03125 0
-0.3125 0.03125 0
-0.34375 0 0
-0.3125 0 0
-0.28125 0.03125 0
-0.25 0.03125 0
-0.28125 0 0
-0.25 0 0
-0.21875 0.21875 0
-0.1875 0.21875 0
-0.21875 0.1875 0
-0.1875 0.1875 0
-0.15625 0.21875 0
-0.125 0.21875 0
-0.15625 0.1875 0
-0.125 0.1875 0
-0.21875 0.15625 0
-0.1875 0.15625 0
-0.21875 0.125 0
-0.1875 0.125 0
-0.15625 0.15625 0
-0.125 0.15625 0
-0.15625 0.125 0
-0.125 0.125 0
-0.09375 0.21875 0
-0.0625 0.21875 0
-0.09375 0.1875 0
-0.0625 0.1875 0
-0.03125 0.21875 0
0 0.21875 0
-0.03125 0.1875 0
0 0.1875 0
-0.09375 0.15625 0
-0.0625 0.15625 0
-0.09375 0.125 0
-0.0625 0.125 0
-0.03125 0.15625 0
0 0.15625 0
-0.03125 0.125 0
0 0.125 0
-0.21875 0.09375 0
-0.1875 0.09375 0
-0.21875 0.0625 0
-0.1875 0.0625 0
-0.15625 0.09375 0
-0.125 0.09375 0
-0.15625 0.0625 0
-0.125 0.0625 0
-0.21875 0.03125 0
-0.1875 0.03125 0
-0.21875 0 0
-0.1875 0 0
-0.15625 0.03125 0
-0.125 0.03125 0
-0.15625 0 0
-0.125 0 0
-0.09375 0.09375 0
-0.0625 0.09375 0
-0.09375 0.0625 0
-0.0625 0.0625 0
-0.03125 0.09375 0
0 0.09375 0
-0.03125 0.0625 0
0 0.0625 0
-0.09375 0.03125 0
-0.0625 0.03125 0
-0.09375 0 0
-0.0625 0 0
-0.03125 0.03125 0
0 0.03125 0
-0.03125 0 0
0 0 0
0.03125 0.46875 0
0.03125 0.5 0
0.0625 0.46875 0
0.0625 0.5 0
0.03125 0.4375 0
0.0625 0.4375 0
0.09375 0.46875 0
0.09375 0.5 0
0.125 0.46875 0
0.125 0.5 0
0.09375 0.4375 0
0.125 0.4375 0
0.03125 0.40625 0
0.0625 0.40625 0
0.03125 0.375 0
0.0625 0.375 0
0.09375 0.40625 0
0.125 0.40625 0
0.09375 0.375 0
0.125 0.375 0
0.15625 0.46875 0
0.15625 0.5 0
0.1875 0.46875 0
0.1875 0.5 0
0.15625 0.4375 0
0.1875 0.4375 0
0.21875 0.46875 0
0.21875 0.5 0
0.25 0.46875 0
0.25 0.5 0
0.21875 0.4375 0
0.25 0.4375 0
0.15625 0.40625 0
0.1875 0.40625 0
0.15625 0.375 0
0.1875 0.375 0
0.21875 0.40625 0
0.25 0.40625 0
0.21875 0.375 0
0.25 0.375 0
0.03125 0.34375 0
0.0625 0.34375 0
0.03125 0.3125 0
0.0625 0.3125 0
0.09375 0.34375 0
0.125 0.34375 0
0.09375 0.3125 0
0.125 0.3125 0
0.03125 0.28125 0
0.0625 0.28125 0
0.03125 0.25 0
0.0625 0.25 0
0.09375 0.28125 0
0.125 0.28125 0
0.09375 0.25 0
0.125 0.25 0
0.15625 0.34375 0
0.1875 0.34375 0
0.15625 0.3125 0
0.1875 0.3125 0
0.21875 0.34375 0
0.25 0.34375 0
0.21875 0.3125 0
0.25 0.3125 0
0.15625 0.28125 0
0.1875 0.28125 0
0.15625 0.25 0
0.1875 0.25 0
0.21875 0.28125 0
0.25 0.28125 0
0.21875 0.25 0
0.25 0.25 0
0.28125 0.46875 0
0.28125 0.5 0
0.3125 0.46875 0
0.3125 0.5 0
0.28125 0.4375 0
0.3125 0.4375 0
0.34375 0.46875 0
0.34375 0.5 0
0.375 0.46875 0
0.375 0.5 0
0.34375 0.4375 0
0.375 0.4375 0
0.28125 0.40625 0
0.3125 0.40625 0
0.28125 0.375 0
0.3125 0.375 0
0.34375 0.40625 0
0.375 0.40625 0
0.34375 0.375 0
0.375 0.375 0
0.40625 0.46875 0
0.40625 0.5 0
0.4375 0.46875 0
0.4375 0.5 0
0.40625 0.4375 0
0.4375 0.4375 0
0.46875 0.46875 0
0.46875 0.5 0
0.5 0.46875 0
0.5 0.5 0
0.46875 0.4375 0
0.5 0.4375 0
0.40625 0.40625 0
0.4375 0.40625 0
0.40625 0.375 0
0.4375 0.375 0
0.46875 0.40625 0
0.5 0.40625 0
0.46875 0.375 0
0.5 0.375 0
0.28125 0.34375 0
0.3125 0.34375 0
0.28125 0.3125 0
0.3125 0.3125 0
0.34375 0.34375 0
0.375 0.34375 0
0.34375 0.3125 0
0.375 0.3125 0
0.28125 0.28125 0
0.3125 0.28125 0
0.28125 0.25 0
0.3125 0.25 0
0.34375 0.28125 0
0.375 0.28125 0
0.34375 0.25 0
0.375 0.25 0
0.40625 0.34375 0
0.4375 0.34375 0
0.40625 0.3125 0
0.4375 0.3125 0
0.46875 0.34375 0
0.5 0.34375 0
0.46875 0.3125 0
0.5 0.3125 0
0.40625 0.28125 0
0.4375 0.28125 0
0.40625 0.25 0
0.4375 0.25 0
0.46875 0.28125 0
0.5 0.28125 0
0.46875 0.25 0
0.5 0.25 0
0.03125 0.21875 0
0.0625 0.21875 0
0.03125 0.1875 0
0.0625 0.1875 0
0.09375 0.21875 0
0.125 0.21875 0
0.09375 0.1875 0
0.125 0.1875 0
0.03125 0.15625 0
0.0625 0.15625 0
0.03125 0.125 0
0.0625 0.125 0
0.09375 0.15625 0
0.125 0.15625 0
0.09375 0.125 0
0.125 0.125 0
0.15625 0.21875 0
0.1875 0.21875 0
0.15625 0.1875 0
0.1875 0.1875 0
0.21875 0.21875 0
0.25 0.21875 0
0.21875 0.1875 0
0.25 0.1875 0
0.15625 0.15625 0
0.1875 0.15625 0
0.15625 0.125 0
0.1875 0.125 0
0.21875 0.15625 0
0.25 0.15625 0
0.21875 0.125 0
0.25 0.125 0
0.03125 0.09375 0
0.0625 0.09375 0
0.03125 0.0625 0
0.0625 0.0625 0
0.09375 0.09375 0
0.125 0.09375 0
0.09375 0.0625 0
0.125 0.0625 0
0.03125 0.03125 0
0.0625 0.03125 0
0.03125 0 0
0.0625 0 0
0.09375 0.03125 0
0.125 0.03125 0
0.09375 0 0
0.125 0 0
0.15625 0.09375 0
0.1875 0.09375 0
0.15625 0.0625 0
0.1875 0.0625 0
0.21875 0.09375 0
0.25 0.09375 0
0.21875 0.0625 0
0.25 0.0625 0
0.15625 0.03125 0
0.1875 0.03125 0
0.15625 0 0
0.1875 0 0
0.21875 0.03125 0
0.25 0.03125 0
0.21875 0 0
0.25 0 0
0.28125 0.21875 0
0.3125 0.21875 0
0.28125 0.1875 0
0.3125 0.1875 0
0.34375 0.21875 0
0.375 0.21875 0
0.34375 0.1875 0
0.375 0.1875 0
0.28125 0.15625 0
0.3125 0.15625 0
0.28125 0.125 0
0.3125 0.125 0
0.34375 0.15625 0
0.375 0.15625 0
0.34375 0.125 0
0.375 0.125 0
0.40625 0.21875 0
0.4375 0.21875 0
0.40625 0.1875 0
0.4375 0.1875 0
0.46875 0.21875 0
0.5 0.21875 0
0.46875 0.1875 0
0.5 0.1875 0
0.40625 0.15625 0
0.4375 0.15625 0
0.40625 0.125 0
0.4375 0.125 0
0.46875 0.15625 0
0.5 0.15625 0
0.46875 0.125 0
0.5 0.125 0
0.28125 0.09375 0
0.3125 0.09375 0
0.28125 0.0625 0
0.3125 0.0625 0
0.34375 0.09375 0
0.375 0.09375 0
0.34375 0.0625 0
0.375 0.0625 0
0.28125 0.03125 0
0.3125 0.03125 0
0.28125 0 0
0.3125 0 0
0.34375 0.03125 0
0.375 0.03125 0
0.34375 0 0
0.375 0 0
0.40625 0.09375 0
0.4375 0.09375 0
0.40625 0.0625 0
0.4375 0.0625 0
0.46875 0.09375 0
0.5 0.09375 0
0.46875 0.0625 0
0.5 0.0625 0
0.40625 0.03125 0
0.4375 0.03125 0
0.40625 0 0
0.4375 0 0
0.46875 0.03125 0
0.5 0.03125 0
0.46875 0 0
0.5 0 0
-0.5 -0.03125 0
-0.46875 -0.03125 0
-0.4375 -0.03125 0
-0.5 -0.0625 0
-0.46875 -0.0625 0
-0.4375 -0.0625 0
-0.40625 -0.03125 0
-0.375 -0.03125 0
-0.40625 -0.0625 0
-0.375 -0.0625 0
-0.5 -0.09375 0
-0.46875 -0.09375 0
-0.4375 -0.09375 0
-0.5 -0.125 0
-0.46875 -0.125 0
-0.4375 -0.125 0
-0.40625 -0.09375 0
-0.375 -0.09375 0
-0.40625 -0.125 0
-0.375 -0.125 0
-0.34375 -0.03125 0
-0.3125 -0.03125 0
-0.34375 -0.0625 0
-0.3125 -0.0625 0
-0.28125 -0.03125 0
-0.25 -0.03125 0
-0.28125 -0.0625 0
-0.25 -0.0625 0
-0.34375 -0.09375 0
-0.3125 -0.09375 0
-0.34375 -0.125 0
-0.3125 -0.125 0
-0.28125 -0.09375 0
-0.25 -0.09375 0
-0.28125 -0.125 0
-0.25 -0.125 0
-0.5 -0.15625 0
-0.46875 -0.15625 0
-0.4375 -0.15625 0
-0.5 -0.1875 0
-0.46875 -0.1875 0
-0.4375 -0.1875 0
-0.40625 -0.15625 0
-0.375 -0.15625 0
[...]
POINT_DATA 1089
SCALARS T float
LOOKUP_TABLE default
0
0
0
0
0
0
0
0
0
0
0
0
0
0
0
0
0
0
0
0
0
0
0
0
0
0
0
0
0
0
0
0
0
0
0
0
0
0
0
0
0
0
0
0
0
0
0
0
0
0
0
0
0
0
0
0
0
0
0
0
0
0
0
0
0
0
0
0
0
0
0
0
0
0
0
0
0
0
0
0
0
0
0
0
0
0
0
0
0
0
0
0
0
0
0
0
0
0
0
0
0
0
0
0
0
0
0
0
0
0
0
0
0
0
0
0
0
0
0
0
0
0
0
0
0
0
0
0
0
0
0
0
0
0
0
0
0
0
0
0
0
0
0
0
0
0
0
0
0
0
0
0
0
0
0
0
0
0
0
0
0
0
0
0
0
0
0
0
0
0
0
0
0
0
0
0
0
0
0
0
0
0
0
0
0
0
0
0
0
0
0
0
0
0
0
0
0
0
0
0
0
0
0
0
0
0
0
0
0
0
0
0
0
0
0
0
0.0424164
0
0.00162993
0
0.13456
0.140632
0.4302
0.523562
0.887784
0
0
0
0
0
0
0
0
0
0
0
0
0
0
0
0
0
0
0
0
0
0
0
0
0
0
0
0
0
0
0
0
0
0
0.171446
0.300648
0
0
0.347558
0.321
0.670228
0.800648
0.998782
1
0.847558
0.821
1
1
0
0
0.222045
0.0815598
0
0
0.00457551
0
0.722045
0.539944
1
0.958384
0.258931
0.0459712
0.736418
0.319229
0
0
0
0
0
0
0
0
0
0
0
0
0
0
0
0
0
0
0
0
0
0
0
0
0
0
0
0
0
0
0
0
0
0
0
0
0
0
0
0
0
0
0
0
0
0
0
0.00415106
0
0
0
0
0.000137069
0.167261
0.0434135
0.456386
0
0
0.0916496
0.221505
0
0
0.218204
0.0871217
0.504622
0.721506
0.912973
1
0.718204
0.494983
1
0.907803
0
0
0
0
0
0
0
0
0
0
0
0
0
0
0
0
0
0
0
0
0
0
0
0
0
0
0
0
0
0
0
0
0
0
0
0
0
0
0
0
0
0
0.00292506
0
0
0
0
0
0.161475
0.00068809
0.448493
0.04069
0
0
0
0
0
0
0
0
0
0
0
0
0
0
0
0
0
0
0
0
0
0
0
0
0.112376
0.612376
0.0849018
0.572638
0
0
0
0
0.0158025
0.328538
0
0.0749999
1
1
0.987736
1
1
0.999941
1
0.989529
0.790754
0.978018
0.306604
0.512106
0.979083
0.804714
0.518375
0.323976
0
0
0
0
0
0
0
0
0
0
0.0411949
0
0
0
0
0
0.00358632
0.0340876
0
0
0.0392919
0.00879064
0
0
0
0
0
0
0
0
8.44624e-05
8.44624e-05
0.608172
0.108231
0.575666
0.0861374
0
0
0
0
0.343539
0.0179083
0.0861023
0
0
0
0
0
0
0
0
0
0
0
0
0
0
0
0
0
0
0
0
0
0
0
0
0
0
0
0
0
0
0
0
0
0
0
0
0
0
0
0
0
0
0
0
0
0
0
0
0
0
0
0
0
0
0
0
0
0
0
0
0
0
0
0
0
0
0
0
0
0
0
0
0
0.0268566
0.405493
0.121148
0.616853
0.878636
1
0.995705
1
0.205717
0.705717
0.188705
0.688705
1
1
1
1
0
0
0
0
0
0
0
0
0
0
0
0
0
0
0
0
0
0
0
0
0.086617
0.56585
0.00933762
0.320548
0.979233
1
0.810115
0.998905
0
0.0819765
0
0
0.413086
0.810386
0.0822053
0.322419
1
1
1
1
1
1
1
1
1
1
1
1
1
1
1
1
1
1
1
1
0.982063
0.695128
1
0.915737
1
1
1
1
1
0.993866
1
0.99459
1
1
1
1
1
1
1
1
0.979276
1
0.577576
0.726461
1
1
0.790213
0.776248
1
1
1
1
1
0.913609
0.978885
0.681736
0.999998
0.945429
0.684611
0.506101
0.71214
0.300541
0.234448
0.0378243
0
0
0
0
0
0
0
0
0
0
0
0
0
0
0
0
0
0
0
0
0
0
0
0
0
0.010938
0
0
0
0
0
0
0
0
0
0
0
0
0
0
0
0
0
0
0
0
0
0
0
0
0
0
0
0
0
0
0
0
0
0
0
0
0
0
0
0
0
0
0
0
0
0
0.0983004
0.226461
0
0
0.290213
0.276248
0
0
0
0
0
0
0
0
0
0
0.184614
0.0606726
0
0
0.00119284
0
0
0
0
0
0
0
0
0
0
0
0
0
0
0
0
0
0
0
0
0
0
0
0
0
0
0
0
0
0
0
0
0
0
0
0
0
0
0
0
0
0
0
0.213066
0
0.423313
0.00757684
0
0
0
0
0.527974
0.0341081
0.527349
0.0327587
0
0
0
0
0
0.00996405
0
0.0233245
0.0359049
0.0319419
0.173053
0.296154
0
0.185662
0
0.378882
0.559535
0.764297
0.878882
1
0.419837
0.00622742
0.202851
0
0
0
0
0
0.0338318
0
0
0
0
0
0
0
0
0.308771
0
0.102191
0.808568
0.999796
0.39602
0.608735
0
0
0
0
0.0440328
0.108939
0
0
0.00600102
0
0.17163
0.0252053
0
0
0
0
0.604865
0.215669
0.932495
0.433843
0.00122744
0
0.00134825
0
0
0
0
0
0
0
0
0
0
0
0
0
0
0
0
0
0.901111
0.401569
0.475691
0.161122
0.000458457
0
0.000337656
0
0.0678389
0.00293257
0
0
0
0
0
0
0
0
0
0
0
0
0
0
0
0
0
0
0
0
0
0
0
0
0
0
0
0
0
0
0
0
0
0
0
0
0
0
0
0
0
0
0
0
0
0
0
0
0
0
0
0
0
0
0
0
0
0
0
0
0
0
0
0
0
0
0
0
0
0
0
0
0
0
0
0
0
0
0
0
0
0
0
0
0
0
0
0
0
0
0
0
0
0
0
0
0
0
0
0
0
0
0
0
0
0
0
0
0
0
0
0
0
0
0
0
0
0
0
0
0
0
0
0
0
0
0
0
0
0
0
0
0
0
0
0
0
0
0
0
0
0
0
0
0
0
0
0
0
0

SCALARS P float
LOOKUP_TABLE default
-0.00830452
-0.00820323
-0.00838035
-0.00827205
-0.00808835
-0.00814732
-0.00824145
-0.00814919
-0.00804343
-0.00795998
-0.00800779
-0.0078202
-0.00785511
-0.00792452
-0.00779477
-0.00819276
-0.00810938
-0.00801176
-0.00815882
-0.00808437
-0.00799398
-0.00790032
-0.00777744
-0.00788794
-0.00776871
-0.0076712
-0.00769045
-0.00751774
-0.0075184
-0.00765682
-0.00751548
-0.00736577
-0.0073446
-0.00722403
-0.00717912
-0.00737668
-0.00724834
-0.00764594
-0.00751059
-0.007639
-0.0075036
-0.00737728
-0.0072536
-0.00736836
-0.00724102
-0.00814091
-0.00807569
-0.00799166
-0.00814271
-0.00808663
-0.00800785
-0.00788898
-0.00777016
-0.00790645
-0.00778491
-0.00816826
-0.00812102
-0.00804638
-0.00822426
-0.00818416
-0.00811217
-0.00794445
-0.00781738
-0.00800811
-0.00787339
-0.00763761
-0.00749611
-0.00764492
-0.00749112
-0.0073514
-0.00721185
-0.00732891
-0.00716768
-0.00766557
-0.0074932
-0.00770606
-0.00750924
-0.00730456
-0.00711034
-0.00728427
-0.00704329
-0.00710342
-0.00703562
-0.00701477
-0.00692852
-0.0071398
-0.00706013
-0.00696934
-0.00687378
-0.00697199
-0.00687695
-0.00701825
-0.00701877
-0.00714825
-0.00706978
-0.00713051
-0.0070459
-0.00702638
-0.00702281
-0.00699598
-0.00698614
-0.00702532
-0.00694169
-0.00712477
-0.00706003
-0.00706399
-0.00715145
-0.00726255
-0.00722039
-0.00743008
-0.00740966
-0.00727558
-0.00743113
-0.00706147
-0.00714123
-0.00701927
-0.0070946
-0.0072574
-0.00740769
-0.00720741
-0.00735795
-0.00708741
-0.00698875
-0.00701917
-0.00689715
-0.00692674
-0.00690792
-0.00681663
-0.00678596
-0.00692488
-0.00676713
-0.00680357
-0.00659264
-0.00665965
-0.00661347
-0.00644642
-0.00638082
-0.00693578
-0.00700877
-0.00680965
-0.00688378
-0.00712079
-0.00727191
-0.00699859
-0.00715175
-0.0066353
-0.00671554
-0.00640717
-0.00650584
-0.00683757
-0.00698842
-0.00664863
-0.00680172
-0.00831856
-0.00828156
-0.00821055
-0.0084559
-0.00841643
-0.00834524
-0.00810378
-0.00796102
-0.00823703
-0.00808873
-0.00862807
-0.00858626
-0.00851853
-0.0088218
-0.00878398
-0.00872794
-0.00841552
-0.00827061
-0.00864203
-0.00851604
-0.00777631
-0.00755018
-0.00788801
-0.00763146
-0.00727774
-0.00697232
-0.00730159
-0.00691096
-0.00806335
-0.00778323
-0.00832244
-0.00804017
-0.00738652
-0.00688147
-0.00758218
-0.00694611
-0.00902858
-0.00900423
-0.00897305
-0.00923733
-0.00923517
-0.00924027
-0.00892338
-0.00884583
-0.00924929
-0.00925839
-0.00943612
-0.00946185
-0.0095155
-0.00960509
-0.00965919
-0.00976576
-0.0096141
-0.00976857
-0.00996515
-0.0102935
-0.00871078
-0.00848422
-0.00925947
-0.00922141
-0.00800124
-0.0072129
-0.0088691
-0.00571811
-0.0100429
-0.0102662
-0.0109358
-0.00234827
-0.00152954
0.0164291
0.0223023
0.0443425
-0.00665315
-0.00636225
-0.0064755
-0.00606216
-0.00615963
-0.00606994
-0.00577548
-0.00565397
-0.00627104
-0.00566496
-0.00607197
-0.00514336
-0.00524594
-0.00507865
-0.0045014
-0.00425498
-0.00611376
-0.00625566
-0.0057391
-0.00596941
-0.00644636
-0.00662736
-0.00625627
-0.00652158
-0.00524427
-0.0056311
-0.00457616
-0.00524694
-0.00607845
-0.00647949
-0.00594511
-0.00652749
-0.00593731
-0.00447776
0.00251329
0.0104909
-0.00345268
-0.00307703
0.0134506
0.0123259
0.030255
0.0368719
0.0502526
0.049349
0.0388253
0.0372642
0.0487284
0.0484772
-0.00367396
-0.00484147
0.00702497
-0.001045
-0.00596482
-0.00679596
-0.00622868
-0.00746141
0.0325305
0.0230621
0.0489895
0.0475163
0.00664472
-0.00631471
0.0353067
0.00974691
-0.00761473
-0.00761165
-0.00781102
-0.00781813
-0.00760719
-0.00780269
-0.00800609
-0.00801829
-0.00819581
-0.00820762
-0.00800088
-0.00820216
-0.00758145
-0.00778387
-0.00753342
-0.00775179
-0.00799432
-0.00822502
-0.00798483
-0.00826679
-0.00836788
-0.00837783
-0.00850448
-0.00851832
-0.00839014
-0.00853229
-0.00859085
-0.00862175
-0.0086296
-0.00868637
-0.00859876
-0.00860076
-0.00845256
-0.00861998
-0.00857451
-0.00880189
-0.00866192
-0.00860475
-0.00879302
-0.00862592
-0.00744791
-0.00768253
-0.00732712
-0.00757229
-0.00793666
-0.00831023
-0.00784265
-0.0077995
-0.00714603
-0.00733975
-0.00693524
-0.00702254
-0.00749729
0.012103
-0.00182275
0.0467146
-0.00878709
-0.00915183
0.00233367
0.0176867
-0.00906274
-0.00868885
0.0168686
0.00137395
0.0521688
0.0780917
0.100519
0.111035
0.0769744
0.0493334
0.11058
0.098134
-0.00864075
-0.00871986
-0.00863149
-0.00872688
-0.00858156
-0.00855121
-0.00860872
-0.00871136
-0.00857329
-0.00867722
-0.00851951
-0.00848251
-0.00853897
-0.00847813
-0.00849463
-0.00839767
-0.00843673
-0.00839973
-0.00835112
-0.00831956
-0.00852585
-0.00862632
-0.00846548
-0.00855975
-0.00843894
-0.00838535
-0.00839196
-0.00847851
-0.00830452
-0.00838471
-0.00832008
-0.00824145
-0.00836245
-0.00831762
-0.00829369
-0.00826121
-0.00826196
-0.00819276
-0.00821749
-0.00815882
-0.00843163
-0.00828181
-0.00801387
-0.0080984
-0.00824442
-0.00823213
-0.00810585
-0.00813762
0.0103663
-0.00769652
0.0435704
-0.00322398
-0.00789411
-0.0080273
-0.00762094
-0.00792551
-0.00822844
-0.00821513
-0.00817049
-0.00818396
-0.00818724
-0.00814091
-0.00817541
-0.00814271
-0.00811992
-0.00817122
-0.0080957
-0.00819055
-0.00818613
-0.00816826
-0.00822884
-0.00822426
-0.00675936
-0.00677498
-0.00672292
-0.00681238
0.00665506
0.0649274
0.00333744
0.060373
-0.00677055
-0.00693792
-0.00690446
-0.00710104
-0.00503263
0.0320209
-0.00723771
0.00182312
0.110131
0.110471
0.108803
0.110407
0.110145
0.109224
0.110344
0.10849
0.0864849
0.108267
0.0293324
0.0535669
0.10843
0.0871183
0.053997
0.0297019
-0.00723256
-0.0074296
-0.0078183
-0.00785045
-0.00758013
-0.00761095
-0.00785276
-0.00777352
-0.00885366
-0.00842571
-0.00770171
-0.00934193
-0.00815673
-0.00784389
-0.00860901
-0.00799083
-0.00729853
-0.00361237
-0.00791344
-0.00818702
-0.00354666
-0.0083145
-0.0086922
-0.00941348
-0.00771785
-0.00767353
-0.00759529
-0.00704479
-0.00841773
-0.00968613
-0.00801378
-0.0100919
0.0620592
0.00409795
0.0586099
0.0013089
-0.0075464
-0.00795039
-0.00799875
-0.00823605
0.0315045
-0.00685435
0.000803194
-0.00915349
-0.00863611
-0.00862657
-0.00900665
-0.00892297
-0.00815785
-0.00827073
-0.00836408
-0.00843595
-0.00831782
-0.00831856
-0.00846332
-0.0084559
-0.0086399
-0.0086505
-0.00888949
-0.00886774
-0.00864786
-0.00862807
-0.0088472
-0.0088218
-0.00953103
-0.009317
-0.00961201
-0.00952797
-0.00924208
-0.00916495
-0.00947351
-0.00939321
-0.010006
-0.00986202
-0.0104664
-0.0101302
-0.00975437
-0.00963074
-0.00997053
-0.00981378
-0.00911482
-0.00907927
-0.00932628
-0.00928173
-0.00905124
-0.00902858
-0.00925124
-0.00923733
-0.00952992
-0.00947175
-0.00968895
-0.00962581
-0.00943835
-0.00943612
-0.0095937
-0.00960509
-0.00973332
-0.0098081
-0.00995724
-0.0097992
-0.00988129
-0.0100406
-0.0102384
-0.0107206
-0.0103338
-0.0108536
-0.00981389
-0.00988476
-0.0100198
-0.00979827
-0.00984785
-0.00995077
-0.0102594
-0.0107004
-0.0101333
-0.0104925
-0.00934166
0.0156793
-0.00249477
0.0300677
0.0457872
0.0521543
0.0534638
0.0525938
0.00354449
0.0359691
0.00256184
0.034574
0.0533968
0.0526064
0.0529198
0.052279
-0.00977136
-0.00978981
-0.00986048
-0.0097288
-0.0097037
-0.00972951
-0.0100019
-0.0103111
-0.0098228
-0.01005
-0.00963569
-0.00957272
-0.00954823
-0.00950387
-0.00940835
-0.00933601
-0.00957437
-0.0096731
-0.0092862
-0.00925464
-0.00436104
0.026202
-0.00967873
0.0102401
0.0512765
0.0516986
0.0403933
0.0508706
-0.00996527
-0.00486247
-0.00928878
-0.00934777
0.0155339
0.0388614
-0.00404654
0.0106347
0.0512956
0.0505404
0.0518447
0.0512718
0.0501314
0.0500893
0.0510003
0.0510458
0.0519908
0.0515345
0.0517612
0.0513848
0.0513512
0.051463
0.0512578
0.051398
0.050643
0.0517284
0.0515042
0.0523143
0.0521066
0.034321
0.0534666
0.0491606
0.0519279
0.0526941
0.051869
0.0526316
0.0536809
0.0543106
0.0536542
0.0545044
0.0512129
0.0508691
0.0503372
0.0499639
0.0507628
0.0508921
0.0498391
0.0499242
0.0479934
0.048723
0.0252158
0.0330632
0.0485474
0.0484993
0.0362673
0.0354522
0.0513574
0.052137
0.0503864
0.0511762
0.0533528
0.0490978
0.0512518
0.0330493
0.0487721
0.046239
0.0307405
0.0212218
0.0333858
0.00819155
0.00520666
-0.00714083
-0.00934793
-0.00922644
-0.00911242
-0.00917945
-0.00904401
-0.00890472
-0.00899541
-0.00885887
-0.00874905
-0.00856233
-0.00901299
-0.00887106
-0.00871811
-0.00885618
-0.00871499
-0.00855899
-0.00854259
-0.00833414
-0.00837946
-0.00817036
-0.00869598
-0.00846062
-0.00832387
-0.00800092
-0.00798718
-0.00640962
-0.00750104
-0.00670647
-0.00807327
-0.00774171
-0.00791811
-0.0076152
-0.00729567
-0.00671195
-0.00724314
-0.00680582
-0.00871284
-0.00857657
-0.00842417
-0.00858631
-0.0084577
-0.00831307
-0.00824981
-0.00805073
-0.00814901
-0.00796496
-0.00847617
-0.00835639
-0.00822141
-0.00838471
-0.00827205
-0.00814732
-0.00806957
-0.00790173
-0.00800779
-0.00785511
-0.00781905
-0.00755378
-0.00775737
-0.00752858
-0.00724997
-0.00692017
-0.00728021
-0.00702536
-0.00771727
-0.00752015
-0.00769045
-0.0075184
-0.00731489
-0.00711324
-0.0073446
-0.00717912
-0.000625774
0.00682479
-0.00568894
-0.00480262
0.0104077
0.00969143
-0.00434456
-0.0043076
-0.00604115
-0.00545945
-0.00634551
-0.00595821
-0.00515511
-0.00512928
-0.00575371
-0.00574012
0.004635
-0.00244754
-0.00481986
-0.00564791
-0.00682206
-0.00811105
-0.00664039
-0.00754853
-0.0054632
-0.00602242
-0.00595931
-0.00633623
-0.00668366
-0.00732448
-0.00679829
-0.00727137
-0.00659604
-0.00633128
-0.0067879
-0.00660039
-0.00619163
-0.00618614
-0.00650233
-0.00650172
-0.006933
-0.00679501
-0.00703562
-0.00692852
-0.00672376
-0.00672594
-0.00687378
-0.00687695
-0.00633678
-0.00660102
-0.00660985
-0.00680281
-0.00693289
-0.00728735
-0.00705238
-0.00732907
-0.00680758
-0.0069549
-0.00694169
-0.00706003
-0.00715011
-0.00737372
-0.00722039
-0.00740966
0.00321216
-0.00969638
0.0175558
-0.00910552
-0.00864341
-0.00758757
-0.00889356
-0.00829398
0.024533
-0.00747271
0.024523
-0.00775382
-0.00945962
-0.00940982
-0.0094787
-0.00907323
-0.00631239
-0.00681514
-0.00761445
-0.00805641
-0.00723447
-0.00910141
0.0129147
0.036139
-0.00972563
0.0215094
-0.00887098
0.0590289
0.0869805
0.124704
0.147566
0.168833
0.0169136
-0.0101317
0.00192269
-0.0106868
-0.00958026
-0.00881428
-0.00961727
-0.00885417
-0.00872685
-0.0100856
-0.00955384
-0.00932565
-0.00945289
-0.00904567
-0.00913464
-0.00900656
-0.00809971
0.0484166
-0.00813155
0.0114475
0.135895
0.169087
0.0632766
0.0999405
-0.00879967
-0.00855484
-0.00898902
-0.00905553
-0.000532233
0.00939647
-0.00961057
-0.0110536
-0.0115657
-0.0110099
0.0172228
-0.00677876
-0.0103872
-0.0100496
-0.0102832
-0.0100215
0.0960781
0.0274183
0.154819
0.0658407
-0.00931117
-0.00970843
-0.00898521
-0.00951509
-0.00984335
-0.00975553
-0.0098533
-0.00979726
-0.00971548
-0.00973332
-0.00977221
-0.0097992
-0.00975577
-0.0097808
-0.00970745
-0.00975912
-0.00978353
-0.00981389
-0.00977594
-0.00979827
0.150332
0.0598621
0.0741297
0.0165306
-0.00990891
-0.00985412
-0.010868
-0.0103774
-0.000121329
-0.0114933
-0.011713
-0.0111445
-0.0109294
-0.0104171
-0.0106208
-0.010264
-0.00987057
-0.00981287
-0.01011
-0.00990928
-0.00978431
-0.00977136
-0.00979768
-0.0097288
-0.010108
-0.00988267
-0.00999612
-0.00978409
-0.00973795
-0.00963569
-0.00962755
-0.00950387
-0.00855501
-0.00872147
-0.00804569
-0.00835377
-0.00880078
-0.00886596
-0.00855991
-0.00872664
-0.00777352
-0.00810777
-0.00765505
-0.00797144
-0.00836193
-0.00857534
-0.00823209
-0.00845756
-0.00898867
-0.00916695
-0.00891289
-0.00911831
-0.00960481
-0.0103631
-0.00944865
-0.00987045
-0.00878656
-0.00899729
-0.0086687
-0.00886535
-0.00926047
-0.00952824
-0.00907252
-0.00925841
-0.00760669
-0.00789065
-0.00759727
-0.00784934
-0.00813872
-0.00835927
-0.00807921
-0.00828792
-0.00760274
-0.00782797
-0.00761165
-0.00781813
-0.00804044
-0.00823726
-0.00801829
-0.00820762
-0.00856121
-0.00874319
-0.0084765
-0.00864151
-0.0089149
-0.0090556
-0.00878484
-0.00889522
-0.00841428
-0.00856531
-0.00837783
-0.00851832
-0.00868732
-0.00877442
-0.00862175
-0.00868637
-0.0107322
-0.0105469
-0.0100941
-0.010063
-0.01027
-0.0100324
-0.00992138
-0.00977093
-0.00967972
-0.00969968
-0.00937194
-0.00940748
-0.00962724
-0.00952884
-0.00937205
-0.00930585
-0.00982103
-0.0096376
-0.00961202
-0.00945954
-0.00948349
-0.00934793
-0.0093168
-0.00917945
-0.00940772
-0.00927947
-0.00921255
-0.00910432
-0.0091483
-0.00901299
-0.00898549
-0.00885618
-0.0091434
-0.00917814
-0.0089643
-0.00899326
-0.0091597
-0.00911109
-0.00898179
-0.00894283
-0.00882626
-0.00884566
-0.00871986
-0.00872688
-0.00883424
-0.00879933
-0.00871136
-0.00867722
-0.00903593
-0.00894249
-0.00887968
-0.00879758
-0.00883461
-0.00871284
-0.00869958
-0.00858631
-0.00874362
-0.00867009
-0.00862632
-0.00855975
-0.00858081
-0.00847617
-0.00847851
-0.00838035

SCALARS U float
LOOKUP_TABLE default
0.0191603
0.0191323
0.018896
0.0188651
0.0190912
0.0188062
0.0194534
0.0194031
0.0193481
0.0190558
0.018744
0.0190458
0.0187026
0.0193057
0.0192923
0.0197761
0.0196774
0.0195833
0.0201144
0.019946
0.0197929
0.0195093
0.0194691
0.019669
0.0195854
0.0190811
0.0187109
0.0191799
0.0187981
0.0193219
0.019406
0.0193544
0.0189885
0.0196137
0.019305
0.0195502
0.0197563
0.0194729
0.0195278
0.0195496
0.0195667
0.0196358
0.0197949
0.019637
0.0197573
0.020437
0.0201871
0.019962
0.0207056
0.0203722
0.0200668
0.0197741
0.0196332
0.0198017
0.019587
0.0208925
0.0204766
0.0200813
0.0209882
0.0204843
0.0199799
0.0197197
0.0194048
0.0194894
0.0190313
0.0195459
0.0195176
0.0194321
0.0193466
0.0195497
0.0196409
0.0193382
0.0194125
0.0191544
0.0189886
0.0186385
0.0183497
0.01893
0.0190006
0.0182154
0.018292
0.0199496
0.0197424
0.0203471
0.0202846
0.020015
0.0203125
0.0207756
0.020886
0.0211971
0.0214856
0.0206265
0.0209312
0.0199954
0.0202236
0.019917
0.0201021
0.0204607
0.020687
0.0202939
0.0204736
0.0215731
0.0220203
0.0218677
0.0224291
0.0212021
0.0214189
0.0220627
0.02268
0.022144
0.0227465
0.021575
0.0216678
0.0208852
0.0210443
0.0206266
0.0207464
0.0211685
0.021266
0.0208471
0.0209453
0.0197803
0.0199524
0.0195595
0.0197625
0.0201354
0.0203063
0.0199912
0.0202115
0.0191951
0.0194954
0.0185865
0.0190843
0.0198543
0.0202138
0.0197062
0.0203445
0.0204481
0.0205543
0.0203974
0.0205354
0.0206451
0.0207468
0.0206479
0.0207675
0.0205236
0.0207504
0.0208977
0.0212886
0.0208978
0.0209809
0.0214726
0.02142
0.0210129
0.0204015
0.0197533
0.020985
0.020244
0.0194114
0.0190833
0.0184166
0.0185022
0.0175408
0.020961
0.020071
0.0190228
0.0209754
0.019961
0.0187088
0.0178173
0.0164479
0.0171731
0.0152412
0.0178059
0.0173119
0.0165927
0.0157282
0.017035
0.0171018
0.0151342
0.0150934
0.0149452
0.0133374
0.0127965
0.00974786
0.011993
0.0115621
0.00687161
0.00555973
0.0210702
0.0200424
0.0186829
0.0213125
0.0204692
0.0192106
0.0168464
0.014192
0.017237
0.0139097
0.0217874
0.0214201
0.0206471
0.0225225
0.0229433
0.0231713
0.0190733
0.0159988
0.02295
0.0220056
0.0102991
0.00491944
0.0085174
0.00107109
-0.000284457
-0.00251036
-0.00492551
-0.00500048
0.010921
0.00544111
0.0206229
0.0218915
0.00450335
0.0102611
0.0281127
0.0350682
0.0175553
0.0184015
0.0157528
0.0171902
0.0195021
0.0206469
0.0191509
0.0212105
0.0124536
0.0149199
0.00672884
0.0109495
0.0184662
0.0222222
0.0172057
0.0238513
0.021632
0.0222949
0.0229621
0.0240793
0.0225312
0.0222679
0.0244231
0.0239506
0.0253689
0.0272539
0.029419
0.032616
0.0277174
0.0268298
0.0331757
0.0313338
-0.000374394
0.00635706
0.000408171
0.0085161
0.0157409
0.0256192
0.0172039
0.0258023
0.0177527
0.0217257
0.0373114
0.0332977
0.022307
0.0220494
0.0254719
0.0169969
0.0342648
0.0396933
0.0343905
0.0421039
0.0409293
0.0377959
0.0462891
0.0437808
0.0237462
0.0296174
0.0104908
0.00868806
0.0374401
0.0404209
0.0129788
0.0206228
0.0221162
0.0226294
0.0219819
0.0223472
0.0217141
0.0217102
0.021745
0.0219224
0.0213892
0.0213746
0.0216598
0.0215111
0.0213763
0.0214988
0.0211195
0.0213749
0.021671
0.0217958
0.0218569
0.022422
0.0208663
0.0207187
0.0202012
0.0200102
0.0211029
0.0204126
0.019546
0.0193619
0.0190755
0.0188849
0.0196883
0.019231
0.021495
0.0206521
0.0222046
0.0208653
0.0197261
0.0192942
0.0193922
0.0190012
0.0209883
0.0213912
0.0210633
0.0216152
0.0224308
0.0238191
0.0233799
0.0256039
0.0211188
0.0214302
0.0210899
0.0205102
0.0227722
0.0238789
0.0195257
0.0176851
0.0236151
0.0212454
0.0251662
0.0224269
0.0186402
0.0180033
0.0195395
0.0179671
0.0228175
0.0224646
0.0170135
0.0204454
0.0229982
0.0220196
0.0255485
0.0283263
0.0188396
0.0186209
0.0187863
0.0185382
0.019082
0.0191139
0.0188443
0.0185745
0.018949
0.0186706
0.0192239
0.0193432
0.019343
0.0195482
0.0195031
0.0200743
0.0197438
0.0198725
0.0204119
0.0205316
0.0190528
0.0187757
0.019127
0.0188571
0.0194351
0.0194818
0.0191623