# vtk DataFile Version 2.0
Gerris simulation version 1.3.2 (131206-155120)
ASCII
DATASET UNSTRUCTURED_GRID

POINTS 1089 float
-0.5 0.46875 0
-0.46875 0.46875 0
-0.5 0.5 0
-0.46875 0.5 0
-0.4375 0.46875 0
-0.4375 0.5 0
-0.5 0.4375 0
-0.46875 0.4375 0
-0.4375 0.4375 0
-0.40625 0.46875 0
-0.40625 0.5 0
-0.375 0.46875 0
-0.375 0.5 0
-0.40625 0.4375 0
-0.375 0.4375 0
-0.5 0.40625 0
-0.46875 0.40625 0
-0.4375 0.40625 0
-0.5 0.375 0
-0.46875 0.375 0
-0.4375 0.375 0
-0.40625 0.40625 0
-0.375 0.40625 0
-0.40625 0.375 0
-0.375 0.375 0
-0.34375 0.46875 0
-0.34375 0.5 0
-0.3125 0.46875 0
-0.3125 0.5 0
-0.34375 0.4375 0
-0.3125 0.4375 0
-0.28125 0.46875 0
-0.28125 0.5 0
-0.25 0.46875 0
-0.25 0.5 0
-0.28125 0.4375 0
-0.25 0.4375 0
-0.34375 0.40625 0
-0.3125 0.40625 0
-0.34375 0.375 0
-0.3125 0.375 0
-0.28125 0.40625 0
-0.25 0.40625 0
-0.28125 0.375 0
-0.25 0.375 0
-0.5 0.34375 0
-0.46875 0.34375 0
-0.4375 0.34375 0
-0.5 0.3125 0
-0.46875 0.3125 0
-0.4375 0.3125 0
-0.40625 0.34375 0
-0.375 0.34375 0
-0.40625 0.3125 0
-0.375 0.3125 0
-0.5 0.28125 0
-0.46875 0.28125 0
-0.4375 0.28125 0
-0.5 0.25 0
-0.46875 0.25 0
-0.4375 0.25 0
-0.40625 0.28125 0
-0.375 0.28125 0
-0.40625 0.25 0
-0.375 0.25 0
-0.34375 0.34375 0
-0.3125 0.34375 0
-0.34375 0.3125 0
-0.3125 0.3125 0
-0.28125 0.34375 0
-0.25 0.34375 0
-0.28125 0.3125 0
-0.25 0.3125 0
-0.34375 0.28125 0
-0.3125 0.28125 0
-0.34375 0.25 0
-0.3125 0.25 0
-0.28125 0.28125 0
-0.25 0.28125 0
-0.28125 0.25 0
-0.25 0.25 0
-0.21875 0.46875 0
-0.21875 0.5 0
-0.1875 0.46875 0
-0.1875 0.5 0
-0.21875 0.4375 0
-0.1875 0.4375 0
-0.15625 0.46875 0
-0.15625 0.5 0
-0.125 0.46875 0
-0.125 0.5 0
-0.15625 0.4375 0
-0.125 0.4375 0
-0.21875 0.40625 0
-0.1875 0.40625 0
-0.21875 0.375 0
-0.1875 0.375 0
-0.15625 0.40625 0
-0.125 0.40625 0
-0.15625 0.375 0
-0.125 0.375 0
-0.09375 0.46875 0
-0.09375 0.5 0
-0.0625 0.46875 0
-0.0625 0.5 0
-0.09375 0.4375 0
-0.0625 0.4375 0
-0.03125 0.46875 0
-0.03125 0.5 0
0 0.46875 0
0 0.5 0
-0.03125 0.4375 0
0 0.4375 0
-0.09375 0.40625 0
-0.0625 0.40625 0
-0.09375 0.375 0
-0.0625 0.375 0
-0.03125 0.40625 0
0 0.40625 0
-0.03125 0.375 0
0 0.375 0
-0.21875 0.34375 0
-0.1875 0.34375 0
-0.21875 0.3125 0
-0.1875 0.3125 0
-0.15625 0.34375 0
-0.125 0.34375 0
-0.15625 0.3125 0
-0.125 0.3125 0
-0.21875 0.28125 0
-0.1875 0.28125 0
-0.21875 0.25 0
-0.1875 0.25 0
-0.15625 0.28125 0
-0.125 0.28125 0
-0.15625 0.25 0
-0.125 0.25 0
-0.09375 0.34375 0
-0.0625 0.34375 0
-0.09375 0.3125 0
-0.0625 0.3125 0
-0.03125 0.34375 0
0 0.34375 0
-0.03125 0.3125 0
0 0.3125 0
-0.09375 0.28125 0
-0.0625 0.28125 0
-0.09375 0.25 0
-0.0625 0.25 0
-0.03125 0.28125 0
0 0.28125 0
-0.03125 0.25 0
0 0.25 0
-0.5 0.21875 0
-0.46875 0.21875 0
-0.4375 0.21875 0
-0.5 0.1875 0
-0.46875 0.1875 0
-0.4375 0.1875 0
-0.40625 0.21875 0
-0.375 0.21875 0
-0.40625 0.1875 0
-0.375 0.1875 0
-0.5 0.15625 0
-0.46875 0.15625 0
-0.4375 0.15625 0
-0.5 0.125 0
-0.46875 0.125 0
-0.4375 0.125 0
-0.40625 0.15625 0
-0.375 0.15625 0
-0.40625 0.125 0
-0.375 0.125 0
-0.34375 0.21875 0
-0.3125 0.21875 0
-0.34375 0.1875 0
-0.3125 0.1875 0
-0.28125 0.21875 0
-0.25 0.21875 0
-0.28125 0.1875 0
-0.25 0.1875 0
-0.34375 0.15625 0
-0.3125 0.15625 0
-0.34375 0.125 0
-0.3125 0.125 0
-0.28125 0.15625 0
-0.25 0.15625 0
-0.28125 0.125 0
-0.25 0.125 0
-0.5 0.09375 0
-0.46875 0.09375 0
-0.4375 0.09375 0
-0.5 0.0625 0
-0.46875 0.0625 0
-0.4375 0.0625 0
-0.40625 0.09375 0
-0.375 0.09375 0
-0.40625 0.0625 0
-0.375 0.0625 0
-0.5 0.03125 0
-0.46875 0.03125 0
-0.4375 0.03125 0
-0.5 0 0
-0.46875 0 0
-0.4375 0 0
-0.40625 0.03125 0
-0.375 0.03125 0
-0.40625 0 0
-0.375 0 0
-0.34375 0.09375 0
-0.3125 0.09375 0
-0.34375 0.0625 0
-0.3125 0.0625 0
-0.28125 0.09375 0
-0.25 0.09375 0
-0.28125 0.0625 0
-0.25 0.0625 0
-0.34375 0.03125 0
-0.3125 0.03125 0
-0.34375 0 0
-0.3125 0 0
-0.28125 0.03125 0
-0.25 0.03125 0
-0.28125 0 0
-0.25 0 0
-0.21875 0.21875 0
-0.1875 0.21875 0
-0.21875 0.1875 0
-0.1875 0.1875 0
-0.15625 0.21875 0
-0.125 0.21875 0
-0.15625 0.1875 0
-0.125 0.1875 0
-0.21875 0.15625 0
-0.1875 0.15625 0
-0.21875 0.125 0
-0.1875 0.125 0
-0.15625 0.15625 0
-0.125 0.15625 0
-0.15625 0.125 0
-0.125 0.125 0
-0.09375 0.21875 0
-0.0625 0.21875 0
-0.09375 0.1875 0
-0.0625 0.1875 0
-0.03125 0.21875 0
0 0.21875 0
-0.03125 0.1875 0
0 0.1875 0
-0.09375 0.15625 0
-0.0625 0.15625 0
-0.09375 0.125 0
-0.0625 0.125 0
-0.03125 0.15625 0
0 0.15625 0
-0.03125 0.125 0
0 0.125 0
-0.21875 0.09375 0
-0.1875 0.09375 0
-0.21875 0.0625 0
-0.1875 0.0625 0
-0.15625 0.09375 0
-0.125 0.09375 0
-0.15625 0.0625 0
-0.125 0.0625 0
-0.21875 0.03125 0
-0.1875 0.03125 0
-0.21875 0 0
-0.1875 0 0
-0.15625 0.03125 0
-0.125 0.03125 0
-0.15625 0 0
-0.125 0 0
-0.09375 0.09375 0
-0.0625 0.09375 0
-0.09375 0.0625 0
-0.0625 0.0625 0
-0.03125 0.09375 0
0 0.09375 0
-0.03125 0.0625 0
0 0.0625 0
-0.09375 0.03125 0
-0.0625 0.03125 0
-0.09375 0 0
-0.0625 0 0
-0.03125 0.03125 0
0 0.03125 0
-0.03125 0 0
0 0 0
0.03125 0.46875 0
0.03125 0.5 0
0.0625 0.46875 0
0.0625 0.5 0
0.03125 0.4375 0
0.0625 0.4375 0
0.09375 0.46875 0
0.09375 0.5 0
0.125 0.46875 0
0.125 0.5 0
0.09375 0.4375 0
0.125 0.4375 0
0.03125 0.40625 0
0.0625 0.40625 0
0.03125 0.375 0
0.0625 0.375 0
0.09375 0.40625 0
0.125 0.40625 0
0.09375 0.375 0
0.125 0.375 0
0.15625 0.46875 0
0.15625 0.5 0
0.1875 0.46875 0
0.1875 0.5 0
0.15625 0.4375 0
0.1875 0.4375 0
0.21875 0.46875 0
0.21875 0.5 0
0.25 0.46875 0
0.25 0.5 0
0.21875 0.4375 0
0.25 0.4375 0
0.15625 0.40625 0
0.1875 0.40625 0
0.15625 0.375 0
0.1875 0.375 0
0.21875 0.40625 0
0.25 0.40625 0
0.21875 0.375 0
0.25 0.375 0
0.03125 0.34375 0
0.0625 0.34375 0
0.03125 0.3125 0
0.0625 0.3125 0
0.09375 0.34375 0
0.125 0.34375 0
0.09375 0.3125 0
0.125 0.3125 0
0.03125 0.28125 0
0.0625 0.28125 0
0.03125 0.25 0
0.0625 0.25 0
0.09375 0.28125 0
0.125 0.28125 0
0.09375 0.25 0
0.125 0.25 0
0.15625 0.34375 0
0.1875 0.34375 0
0.15625 0.3125 0
0.1875 0.3125 0
0.21875 0.34375 0
0.25 0.34375 0
0.21875 0.3125 0
0.25 0.3125 0
0.15625 0.28125 0
0.1875 0.28125 0
0.15625 0.25 0
0.1875 0.25 0
0.21875 0.28125 0
0.25 0.28125 0
0.21875 0.25 0
0.25 0.25 0
0.28125 0.46875 0
0.28125 0.5 0
0.3125 0.46875 0
0.3125 0.5 0
0.28125 0.4375 0
0.3125 0.4375 0
0.34375 0.46875 0
0.34375 0.5 0
0.375 0.46875 0
0.375 0.5 0
0.34375 0.4375 0
0.375 0.4375 0
0.28125 0.40625 0
0.3125 0.40625 0
0.28125 0.375 0
0.3125 0.375 0
0.34375 0.40625 0
0.375 0.40625 0
0.34375 0.375 0
0.375 0.375 0
0.40625 0.46875 0
0.40625 0.5 0
0.4375 0.46875 0
0.4375 0.5 0
0.40625 0.4375 0
0.4375 0.4375 0
0.46875 0.46875 0
0.46875 0.5 0
0.5 0.46875 0
0.5 0.5 0
0.46875 0.4375 0
0.5 0.4375 0
0.40625 0.40625 0
0.4375 0.40625 0
0.40625 0.375 0
0.4375 0.375 0
0.46875 0.40625 0
0.5 0.40625 0
0.46875 0.375 0
0.5 0.375 0
0.28125 0.34375 0
0.3125 0.34375 0
0.28125 0.3125 0
0.3125 0.3125 0
0.34375 0.34375 0
0.375 0.34375 0
0.34375 0.3125 0
0.375 0.3125 0
0.28125 0.28125 0
0.3125 0.28125 0
0.28125 0.25 0
0.3125 0.25 0
0.34375 0.28125 0
0.375 0.28125 0
0.34375 0.25 0
0.375 0.25 0
0.40625 0.34375 0
0.4375 0.34375 0
0.40625 0.3125 0
0.4375 0.3125 0
0.46875 0.34375 0
0.5 0.34375 0
0.46875 0.3125 0
0.5 0.3125 0
0.40625 0.28125 0
0.4375 0.28125 0
0.40625 0.25 0
0.4375 0.25 0
0.46875 0.28125 0
0.5 0.28125 0
0.46875 0.25 0
0.5 0.25 0
0.03125 0.21875 0
0.0625 0.21875 0
0.03125 0.1875 0
0.0625 0.1875 0
0.09375 0.21875 0
0.125 0.21875 0
0.09375 0.1875 0
0.125 0.1875 0
0.03125 0.15625 0
0.0625 0.15625 0
0.03125 0.125 0
0.0625 0.125 0
0.09375 0.15625 0
0.125 0.15625 0
0.09375 0.125 0
0.125 0.125 0
0.15625 0.21875 0
0.1875 0.21875 0
0.15625 0.1875 0
0.1875 0.1875 0
0.21875 0.21875 0
0.25 0.21875 0
0.21875 0.1875 0
0.25 0.1875 0
0.15625 0.15625 0
0.1875 0.15625 0
0.15625 0.125 0
0.1875 0.125 0
0.21875 0.15625 0
0.25 0.15625 0
0.21875 0.125 0
0.25 0.125 0
0.03125 0.09375 0
0.0625 0.09375 0
0.03125 0.0625 0
0.0625 0.0625 0
0.09375 0.09375 0
0.125 0.09375 0
0.09375 0.0625 0
0.125 0.0625 0
0.03125 0.03125 0
0.0625 0.03125 0
0.03125 0 0
0.0625 0 0
0.09375 0.03125 0
0.125 0.03125 0
0.09375 0 0
0.125 0 0
0.15625 0.09375 0
0.1875 0.09375 0
0.15625 0.0625 0
0.1875 0.0625 0
0.21875 0.09375 0
0.25 0.09375 0
0.21875 0.0625 0
0.25 0.0625 0
0.15625 0.03125 0
0.1875 0.03125 0
0.15625 0 0
0.1875 0 0
0.21875 0.03125 0
0.25 0.03125 0
0.21875 0 0
0.25 0 0
0.28125 0.21875 0
0.3125 0.21875 0
0.28125 0.1875 0
0.3125 0.1875 0
0.34375 0.21875 0
0.375 0.21875 0
0.34375 0.1875 0
0.375 0.1875 0
0.28125 0.15625 0
0.3125 0.15625 0
0.28125 0.125 0
0.3125 0.125 0
0.34375 0.15625 0
0.375 0.15625 0
0.34375 0.125 0
0.375 0.125 0
0.40625 0.21875 0
0.4375 0.21875 0
0.40625 0.1875 0
0.4375 0.1875 0
0.46875 0.21875 0
0.5 0.21875 0
0.46875 0.1875 0
0.5 0.1875 0
0.40625 0.15625 0
0.4375 0.15625 0
0.40625 0.125 0
0.4375 0.125 0
0.46875 0.15625 0
0.5 0.15625 0
0.46875 0.125 0
0.5 0.125 0
0.28125 0.09375 0
0.3125 0.09375 0
0.28125 0.0625 0
0.3125 0.0625 0
0.34375 0.09375 0
0.375 0.09375 0
0.34375 0.0625 0
0.375 0.0625 0
0.28125 0.03125 0
0.3125 0.03125 0
0.28125 0 0
0.3125 0 0
0.34375 0.03125 0
0.375 0.03125 0
0.34375 0 0
0.375 0 0
0.40625 0.09375 0
0.4375 0.09375 0
0.40625 0.0625 0
0.4375 0.0625 0
0.46875 0.09375 0
0.5 0.09375 0
0.46875 0.0625 0
0.5 0.0625 0
0.40625 0.03125 0
0.4375 0.03125 0
0.40625 0 0
0.4375 0 0
0.46875 0.03125 0
0.5 0.03125 0
0.46875 0 0
0.5 0 0
-0.5 -0.03125 0
-0.46875 -0.03125 0
-0.4375 -0.03125 0
-0.5 -0.0625 0
-0.46875 -0.0625 0
-0.4375 -0.0625 0
-0.40625 -0.03125 0
-0.375 -0.03125 0
-0.40625 -0.0625 0
-0.375 -0.0625 0
-0.5 -0.09375 0
-0.46875 -0.09375 0
-0.4375 -0.09375 0
-0.5 -0.125 0
-0.46875 -0.125 0
-0.4375 -0.125 0
-0.40625 -0.09375 0
-0.375 -0.09375 0
-0.40625 -0.125 0
-0.375 -0.125 0
-0.34375 -0.03125 0
-0.3125 -0.03125 0
-0.34375 -0.0625 0
-0.3125 -0.0625 0
-0.28125 -0.03125 0
-0.25 -0.03125 0
-0.28125 -0.0625 0
-0.25 -0.0625 0
-0.34375 -0.09375 0
-0.3125 -0.09375 0
-0.34375 -0.125 0
-0.3125 -0.125 0
-0.28125 -0.09375 0
-0.25 -0.09375 0
-0.28125 -0.125 0
-0.25 -0.125 0
-0.5 -0.15625 0
-0.46875 -0.15625 0
-0.4375 -0.15625 0
-0.5 -0.1875 0
-0.46875 -0.1875 0
-0.4375 -0.1875 0
-0.40625 -0.15625 0
-0.375 -0.15625 0
[...]
POINT_DATA 1089
SCALARS T float
LOOKUP_TABLE default
0
0
0
0
0
0
0
0
0
0
0
0
0
0
0
0
0
0
0
0
0
0
0
0
0
0
0
0
0
0
0
0
0
0
0
0
0
0
0
0
0
0
0
0
0
0
0
0
0
0
0
0
0
0
0
0
0
0
0
0
0
0
0
0
0
0
0
0
0
0
0
0
0
0
0
0
0
0
0
0
0
0
0
0
0
0
0
0
0
0
0
0
0
0
0
0
0
0
0
0
0
0
0
0
0
0
0
0
0
0
0
0
0
0
0
0
0
0
0
0
0
0
0
0
0
0
0
0
0
0
0
0
0
0
0
0
0
0
0
0
0
0
0
0
0
0
0
0
0
0
0
0
0
0
0
0
0
0
0
0
0
0
0
0
0
0
0
0
0
0
0
0
0
0
0
0
0
0
0
0
0
0
0
0
0
0
0
0
0
0
0
0
0
0
0
0
0
0
0
0
0
0
0
0
0
0
0
0
0
0
0
0
0
0
0
0
0.0661859
0
0
0
0.0676751
0.119736
0.435855
0.436963
0.869222
0
0
0
0
0
0
0
0
0
0
0
0
0
0
0
0
0
0
0
0
0
0
0
0
0
0
0
0
0
0
0
0
0
0.00164217
0.247912
0.424007
0.00929152
0.00793437
0.499931
0.488133
0.747845
0.922365
0.999933
1
0.990639
0.980199
1
1
0.000285022
0
0.388449
0.19773
0
0
0.0397647
0
0.888164
0.688568
1
0.990838
0.361643
0.0810402
0.81093
0.36093
0
0
0
0
0
0
0
0
0
0
0
0
0
0
0
0
0
0
0
0
0
0
0
0
0
0
0
0
0
0
0
0
0
0
0
0
0
0
0
0
0
0
0
0
0
0
0
0.00156982
0
0
0
0
0
0.146912
0.0269487
0.421173
0
0
0.0792297
0.214864
0
0
0.243922
0.121553
0.474572
0.714864
0.894224
1
0.743922
0.576231
1
0.954678
0
0
0
0
0
0
0
0
0
0
0
0
0
0
0
0
0
0
0
0
0
0
0
0
0
0
0
0
0
0
0
0
0
0
0
0
0
0
0
0
0
0
0.014836
0
0
0
0
0
0.234169
0.014655
0.567616
0.112938
0
0
0
0
0
0
0
0
0
0
0
0
0
0
0
0
0
0
0
0
0
0
0
0
0.0739355
0.572817
0.0505342
0.517391
0
0
0
0
0.00354746
0.265898
0
0.0454938
0.998882
1
0.966857
1
1
1
1
0.996727
0.703025
0.936773
0.236168
0.436813
0.959724
0.793107
0.460467
0.297083
0
0
0
0
0
0
0
0
0
0
0.0408378
0
0
0
0
0
0
3.94621e-05
0
0
0.000742956
0.000703494
0
0
0
0
0
0
0
0
8.44303e-05
8.44303e-05
0.715578
0.215578
0.654573
0.157846
0
0
0
0
0.370034
0.0405522
0.0827556
0
0
0
0
0
0
0
0
0
0
0
0
0
0
0
0
0
0
0
0
0
0
0
0
0
0
0
0
0
0
0
0
0
0
0
0
0
0
0
0
0
0
0
0
0
0
0
0
0
0
0
0
0
0
0
0
0
0
0
0
0
0
0
0
0
0
0
0
0
0
0
0
0
0
0.253204
0.00424827
0.434035
0.752757
0.999553
0.929787
1
0.0187688
0.513026
0.0157482
0.499625
0.994258
1
0.983876
1
0
0
0
0
0
0
0
0
0
0
0
0
0
0
0
0
0
0
0
0
0.00122768
0.391321
0
0.187235
0.890093
1
0.673068
0.985833
0
0.0310182
0
0
0.324114
0.770669
0.0572632
0.30122
1
1
1
1
1
1
1
1
1
1
1
1
1
1
1
1
1
1
1
1
0.989052
0.688529
1
0.88676
1
1
1
1
1
0.975306
1
0.967441
1
1
1
1
1
1
1
1
0.977573
1
0.607468
0.790503
1
1
0.872212
0.866865
1
1
1
1
1
0.864241
0.980339
0.649881
1
0.970337
0.775836
0.587679
0.750937
0.306157
0.283747
0.0502608
0
0
0
0
0
0
0
0
0
0
0
0
0
0
0
0
0
0
0
0
0
0
0
0
0
0.0163837
0
0
0
0
0
0
0
0
0
0
0
0
0
0
0
0
0
0
0
0
0
0
0
0
0
0
0
0
0
0
0
0
0
0
0
0
0
0
0
0
0
0
0
0
0
0
0.129895
0.290503
0
0
0.372212
0.366865
0
0
0
0
0
0
0
0
0
0
0.275836
0.117342
0
0
0.0131494
0
0
0
0
0
0
0
0
0
0
0
0
0
0
0
0
0
0
0
0
0
0
0
0
0
0
0
0
0
0
0
0
0
0
0
0
0
0
0
0
0
0
0
0.199477
0
0.386771
1.1695e-05
0
0
0
0
0.475317
1.1695e-05
0.467441
0
0
0
0
0
0
0.00996441
0
0.0180028
0.0394801
0.0319486
0.187198
0.356015
0
0.145835
0
0.295265
0.535599
0.824151
0.795265
1
0.364241
0
0.169542
0
0
0
0
0
0.0255576
0
0
0
0
0
0
0
0
0.207691
0
0.0502219
0.692217
0.984526
0.295046
0.527663
0
0
0
0
0.0102981
0.0431371
0
0
0.00243291
0
0.25759
0.0707694
0
0
0
0
0.738697
0.320652
0.98354
0.535465
0.0163425
0
0.0519248
0
0
0
0
0
0
0
0
0
0
0
0
0
0
0
0
0
0.920112
0.46037
0.454328
0.176164
0.0402579
0
0.00467551
0
0.0342158
0.00137677
0
0
0
0
0
0
0
0
0
0
0
0
0
0
0
0
0
0
0
0
0
0
0
0
0
0
0
0
0
0
0
0
0
0
0
0
0
0
0
0
0
0
0
0
0
0
0
0
0
0
0
0
0
0
0
0
0
0
0
0
0
0
0
0
0
0
0
0
0
0
0
0
0
0
0
0
0
0
0
0
0
0
0
0
0
0
0
0
0
0
0
0
0
0
0
0
0
0
0
0
0
0
0
0
0
0
0
0
0
0
0
0
0
0
0
0
0
0
0
0
0
0
0
0
0
0
0
0
0
0
0
0
0
0
0
0
0
0
0
0
0
0
0
0
0
0
0
0
0
0

SCALARS P float
LOOKUP_TABLE default
-0.0084742
-0.00844594
-0.00851756
-0.00848595
-0.00840891
-0.00844469
-0.00843917
-0.00841452
-0.00838112
-0.00836313
-0.00839499
-0.00830908
-0.00833691
-0.00833897
-0.00828867
-0.0084142
-0.00839181
-0.00836121
-0.0083995
-0.00837792
-0.00834929
-0.0083221
-0.00827496
-0.00831261
-0.00826805
-0.00824633
-0.00826942
-0.00817527
-0.00819216
-0.00823004
-0.00816382
-0.00809682
-0.00810532
-0.00801329
-0.00801066
-0.00809117
-0.00801454
-0.00821956
-0.00815663
-0.00821491
-0.0081537
-0.00808728
-0.00801391
-0.00808516
-0.00801156
-0.00839367
-0.00837193
-0.00834481
-0.00839525
-0.00837275
-0.00834726
-0.00831033
-0.00826804
-0.00831528
-0.00827541
-0.00840012
-0.00837808
-0.00835557
-0.00840531
-0.00838627
-0.008369
-0.00832733
-0.00829085
-0.00834652
-0.00831527
-0.00821642
-0.00815551
-0.00822491
-0.00816306
-0.00808525
-0.00800786
-0.00808856
-0.00800353
-0.0082417
-0.00817824
-0.00826876
-0.00820425
-0.00809699
-0.00799995
-0.00811448
-0.00800059
-0.00792926
-0.0079134
-0.00785091
-0.00782193
-0.00793793
-0.00786626
-0.00778673
-0.00774912
-0.00774239
-0.00770385
-0.00780573
-0.00776054
-0.00794011
-0.00787027
-0.00793638
-0.00786419
-0.00780973
-0.00776228
-0.00780072
-0.00775021
-0.00772136
-0.00769116
-0.00772202
-0.00770756
-0.00773323
-0.0077233
-0.00773859
-0.00774373
-0.00776582
-0.00779039
-0.00772633
-0.00773899
-0.00773015
-0.00771348
-0.00771524
-0.00769609
-0.00770775
-0.00771028
-0.00768731
-0.00768602
-0.00792696
-0.00784805
-0.00791188
-0.00782111
-0.00777872
-0.00772447
-0.00774251
-0.00768398
-0.00789105
-0.00778099
-0.00786503
-0.00772398
-0.00768777
-0.00762313
-0.00760708
-0.00753331
-0.00768881
-0.00767165
-0.0076507
-0.00764202
-0.00766622
-0.00766743
-0.00764887
-0.00766403
-0.00759528
-0.00760172
-0.00751516
-0.00754629
-0.00763051
-0.00767427
-0.00761142
-0.00770215
-0.00840578
-0.00839479
-0.00838663
-0.00839955
-0.00840256
-0.00840792
-0.0083733
-0.00835085
-0.00840814
-0.00839999
-0.00838941
-0.00841056
-0.00843382
-0.0083771
-0.00841831
-0.00846239
-0.008453
-0.0084673
-0.00850668
-0.00855543
-0.00831019
-0.00824721
-0.00837157
-0.00831747
-0.00814796
-0.0080111
-0.00821269
-0.00805037
-0.00846204
-0.00843172
-0.00859512
-0.00862574
-0.008336
-0.00815143
-0.00858825
-0.00841758
-0.00836786
-0.00842767
-0.00849355
-0.00835522
-0.00843103
-0.00851594
-0.00856741
-0.00866264
-0.00861845
-0.00877101
-0.00834577
-0.00842838
-0.00851958
-0.00832899
-0.00840647
-0.00848462
-0.00864041
-0.00884529
-0.0085936
-0.00879256
-0.00877448
-0.00892315
-0.00899796
-0.00937705
-0.00903909
-0.0089672
-0.00988424
-0.0060951
-0.0092003
-0.00986995
-0.00917239
-0.0053498
-0.00302483
0.0162634
0.0169881
0.0432551
-0.00783493
-0.00764423
-0.00781392
-0.00754176
-0.00748886
-0.00740081
-0.00732276
-0.00721172
-0.0078275
-0.0074246
-0.00795918
-0.00730645
-0.00710023
-0.00695478
-0.00677492
-0.00657242
-0.00739572
-0.00745948
-0.0072274
-0.00734244
-0.0075638
-0.00769127
-0.00749234
-0.00763694
-0.00700821
-0.00720759
-0.00671561
-0.00708988
-0.00741674
-0.00755954
-0.00739574
-0.0075087
-0.00833414
-0.00729299
0.00507481
0.0158136
-0.00642346
-0.00613175
0.020344
0.0197251
0.0348242
0.0446032
0.0509335
0.0504762
0.0484426
0.0475806
0.0502567
0.0501447
-0.00645975
-0.0071573
0.0140139
0.00282053
-0.00758499
-0.00757687
-0.00609457
-0.00789457
0.0420624
0.0307612
0.0500667
0.0495225
0.0119778
-0.00384698
0.0386261
0.0122859
-0.00779667
-0.00784023
-0.00783023
-0.00789241
-0.00775351
-0.00776896
-0.00786339
-0.00794483
-0.00789966
-0.00800065
-0.00778026
-0.00779062
-0.00771163
-0.0077093
-0.00767905
-0.00766128
-0.00769565
-0.00767057
-0.00762062
-0.00754182
-0.00794497
-0.00806349
-0.00800986
-0.00813814
-0.00781086
-0.0078632
-0.00809824
-0.00822445
-0.00819503
-0.00831341
-0.00796144
-0.00807742
-0.00765286
-0.00768845
-0.00745392
-0.0074528
-0.00781028
-0.00796089
-0.00761926
-0.00782785
-0.00765945
-0.00763235
-0.00767145
-0.00765107
-0.00756925
-0.00741331
-0.00758291
-0.00710031
-0.00771906
-0.00774936
-0.00781778
-0.0079783
-0.00775953
0.0101362
-0.00471405
0.0428744
-0.00720159
-0.00713257
0.00237844
0.0181803
-0.00735698
-0.0076287
0.0210662
0.00643578
0.0490324
0.0768111
0.0989936
0.110825
0.0800115
0.0600281
0.111067
0.10589
-0.00828794
-0.00839545
-0.00836812
-0.00846289
-0.00819038
-0.00828996
-0.00842986
-0.00851276
-0.00847098
-0.00854366
-0.00836571
-0.00841651
-0.00810474
-0.00823355
-0.00802344
-0.00820694
-0.00832535
-0.00838418
-0.00831742
-0.0083799
-0.00849366
-0.00855744
-0.00849991
-0.00855634
-0.00844602
-0.00845713
-0.00849278
-0.00854287
-0.0084742
-0.00852031
-0.0084541
-0.00843917
-0.00841702
-0.00842944
-0.00840969
-0.00841817
-0.00842758
-0.0084142
-0.00841372
-0.0083995
-0.0079241
-0.00822674
-0.00633394
-0.00841151
-0.00835442
-0.00840826
-0.0084889
-0.00848679
0.0187584
-0.00747407
0.0582886
0.0035469
-0.00875124
-0.00860162
-0.00892473
-0.00868612
-0.00842397
-0.00842172
-0.00846373
-0.00843963
-0.00841074
-0.00839367
-0.00841709
-0.00839525
-0.00851342
-0.00846109
-0.00854916
-0.00847557
-0.00842595
-0.00840012
-0.00843199
-0.00840531
-0.00785782
-0.00812004
-0.00780072
-0.00803486
0.00103367
0.0613994
-0.00173177
0.0550765
-0.00770084
-0.00786627
-0.0076105
-0.0076853
-0.00750073
0.0246092
-0.00776205
-0.00214709
0.11202
0.111392
0.108556
0.111264
0.111439
0.112211
0.111123
0.11165
0.0770935
0.103541
0.0212405
0.045242
0.10572
0.0866256
0.0477458
0.0277727
-0.0075689
-0.00750355
-0.00767672
-0.00744771
-0.00742769
-0.00732
-0.00727742
-0.00705118
-0.00791749
-0.00746638
-0.00574359
-0.00757235
-0.00712292
-0.00671017
-0.00714519
-0.00666576
-0.00682775
-0.00579665
-0.00675968
-0.0062342
-0.00568622
-0.00703192
-0.00651093
-0.00746203
-0.00644297
-0.00613252
-0.00634224
-0.00597593
-0.00699496
-0.00817809
-0.00754468
-0.00901059
0.0767236
0.015807
0.0697537
0.00947876
-0.00895234
-0.00869835
-0.00860097
-0.00851613
0.0358177
-0.00381032
0.001754
-0.00813642
-0.00830791
-0.00833367
-0.00821085
-0.00822931
-0.00854416
-0.00846679
-0.00845409
-0.00841987
-0.00842612
-0.00840578
-0.0084033
-0.00839955
-0.00834964
-0.0083596
-0.00826447
-0.00830039
-0.00837207
-0.00838941
-0.00833816
-0.0083771
-0.00779952
-0.00785395
-0.00768818
-0.00776085
-0.0080187
-0.0081056
-0.00790914
-0.00800101
-0.00792512
-0.00780998
-0.00783171
-0.00744981
-0.00791928
-0.00796095
-0.00773747
-0.00781307
-0.00818465
-0.00824903
-0.00810944
-0.00819805
-0.00830956
-0.00836786
-0.0082797
-0.00835522
-0.00807684
-0.00817195
-0.00800412
-0.00813149
-0.0082627
-0.00834577
-0.00824029
-0.00832899
-0.0083261
-0.00837918
-0.00842171
-0.00833768
-0.00836704
-0.00836999
-0.00847674
-0.00859022
-0.00836731
-0.00839862
-0.00840217
-0.00840328
-0.00837576
-0.00853522
-0.0084922
-0.00843854
-0.00834754
-0.00835913
-0.00840155
-0.00842109
-0.00884477
0.0068193
-0.0079342
0.0181339
0.0368199
0.0510484
0.0473052
0.0510152
-0.00643835
0.0229454
-0.00689566
0.0219989
0.0506526
0.0510334
0.0500657
0.0509145
-0.00868454
-0.00861112
-0.00855029
-0.00881708
-0.00873257
-0.00868089
-0.00852762
-0.00858876
-0.00868806
-0.0088059
-0.00889884
-0.00881697
-0.00877531
-0.00893468
-0.00885723
-0.00881674
-0.00879793
-0.00892987
-0.0088298
-0.0089218
-0.00857695
0.015217
-0.00911204
0.00238966
0.0447899
0.050746
0.0316463
0.049953
-0.00924627
-0.00767287
-0.00914247
-0.00954675
0.00998893
0.0369459
-0.00637672
0.0084073
0.0510275
0.0509069
0.0511504
0.0511917
0.0508503
0.0508094
0.0512234
0.0512508
0.0512044
0.05129
0.0511116
0.0512182
0.0513525
0.0514123
0.0512871
0.0513517
0.0507576
0.0508006
0.0512825
0.0513731
0.0500515
0.0324395
0.0514655
0.0452276
0.0514873
0.0515929
0.0514379
0.0515381
0.0516584
0.0506708
0.051574
0.050011
0.0509262
0.0510117
0.0507288
0.0506772
0.0510477
0.0510913
0.0505913
0.0505675
0.049255
0.0502781
0.0268305
0.0373461
0.0499699
0.04983
0.0416094
0.041048
0.0511714
0.0512935
0.050636
0.050869
0.0514484
0.0436479
0.0499655
0.0299157
0.049881
0.0483315
0.0359032
0.0250287
0.0353026
0.00835911
0.00706063
-0.00664668
-0.00892685
-0.00885426
-0.008809
-0.00889023
-0.00882293
-0.00877312
-0.00879945
-0.00883363
-0.0087439
-0.00873494
-0.00883389
-0.00877146
-0.0087177
-0.00876816
-0.00871162
-0.00865729
-0.0086728
-0.00863363
-0.00860421
-0.00854905
-0.00892898
-0.00908982
-0.00874577
-0.00875883
-0.0092881
-0.0083068
-0.00873825
-0.00855431
-0.00859458
-0.00853825
-0.00848546
-0.00840037
-0.00844049
-0.00823841
-0.00827811
-0.00808936
-0.00869959
-0.00864889
-0.00859582
-0.00863327
-0.0085888
-0.00853899
-0.00853922
-0.00847665
-0.00848292
-0.00841919
-0.00857237
-0.00853384
-0.00848811
-0.00852031
-0.00848595
-0.00844469
-0.00843468
-0.00837298
-0.00839499
-0.00833691
-0.00840311
-0.00831082
-0.00834432
-0.00825415
-0.00819142
-0.00803327
-0.00814471
-0.00801252
-0.00830097
-0.0082169
-0.00826942
-0.00819216
-0.00811952
-0.00800906
-0.00810532
-0.00801066
-0.0011963
0.00870841
-0.0080487
-0.00724106
0.0136408
0.0133033
-0.00651207
-0.00631219
-0.00786738
-0.0073591
-0.00781658
-0.00749474
-0.00691873
-0.00678491
-0.00723075
-0.00713718
0.00789552
-0.00178869
-0.00669138
-0.00750301
-0.00814403
-0.00880617
-0.0081404
-0.00832861
-0.00698185
-0.00742756
-0.00723428
-0.00748131
-0.00784639
-0.00806339
-0.00774868
-0.00793521
-0.00783402
-0.0076184
-0.00786166
-0.00770964
-0.00744659
-0.0073756
-0.00759087
-0.00753427
-0.00789085
-0.00777681
-0.0079134
-0.00782193
-0.00768757
-0.00763865
-0.00774912
-0.00770385
-0.00742116
-0.00756053
-0.00755076
-0.00762784
-0.00772908
-0.00787103
-0.00773328
-0.00783657
-0.00763757
-0.00767754
-0.00769116
-0.00770756
-0.00774153
-0.00781287
-0.00774373
-0.00779039
0.00381005
-0.00765478
0.0153253
-0.00796198
-0.00696107
-0.00607977
-0.00734657
-0.00690956
0.0208237
-0.00784005
0.0202947
-0.0076729
-0.00754857
-0.00767589
-0.00731762
-0.00710588
-0.00510372
-0.00581405
-0.00675289
-0.00790614
-0.0064149
-0.00813543
0.017761
0.0488836
-0.00804766
0.0155965
-0.00658935
0.0448172
0.0851683
0.137217
0.133459
0.170468
0.0135799
-0.00831178
0.000835349
-0.00890273
-0.0078241
-0.0074985
-0.00830659
-0.00793721
-0.00827809
-0.00908224
-0.00923809
-0.00885119
-0.00862268
-0.00838138
-0.00862761
-0.00852016
-0.00703176
0.0297998
-0.00769518
0.0015139
0.116648
0.169836
0.0456925
0.0878509
-0.0083622
-0.00853771
-0.0085648
-0.00879092
-0.00708903
-0.00157296
-0.00928123
-0.0101506
-0.0088531
-0.00767765
0.0341176
0.0040512
-0.00785545
-0.00782921
-0.00704858
-0.00749193
0.119073
0.0465764
0.16519
0.0842948
-0.00432151
-0.00749425
-0.000274861
-0.00853787
-0.00802926
-0.00814674
-0.00793155
-0.00813554
-0.00825027
-0.0083261
-0.00826706
-0.00833768
-0.00800758
-0.00823882
-0.00855628
-0.00857079
-0.00835706
-0.00840217
-0.00856281
-0.00853522
0.157494
0.0726513
0.0732799
0.021228
-0.00338603
-0.00946417
-0.00970171
-0.00987928
-0.00440743
-0.0108171
-0.0107078
-0.0104324
-0.0102688
-0.00982731
-0.0100021
-0.00969116
-0.00907079
-0.00889224
-0.00937527
-0.0091151
-0.00877256
-0.00868454
-0.00893749
-0.00881708
-0.00943399
-0.00919578
-0.00940423
-0.00920343
-0.00902081
-0.00889884
-0.00904797
-0.00893468
-0.00871207
-0.00860981
-0.00839517
-0.00842653
-0.00856357
-0.00857031
-0.00846556
-0.00852719
-0.00819159
-0.00828237
-0.00806936
-0.0081759
-0.00836457
-0.00845476
-0.00827129
-0.00836868
-0.00866741
-0.00888051
-0.00863962
-0.00882363
-0.00918229
-0.00966366
-0.00904537
-0.00934604
-0.00857131
-0.00872539
-0.0084797
-0.00861003
-0.00889126
-0.0090897
-0.00874397
-0.00888722
-0.00798788
-0.00808953
-0.00793074
-0.00801869
-0.00818331
-0.00827773
-0.00810253
-0.00818745
-0.0078837
-0.00795412
-0.00784023
-0.00789241
-0.0080235
-0.00809534
-0.00794483
-0.00800065
-0.00837969
-0.00849159
-0.00827766
-0.00837459
-0.0086043
-0.00871726
-0.00847303
-0.0085693
-0.00817275
-0.00825782
-0.00806349
-0.00813814
-0.00834789
-0.00843701
-0.00822445
-0.00831341
-0.00999203
-0.00989917
-0.00954862
-0.00952804
-0.00970498
-0.00950625
-0.00944106
-0.00932075
-0.00922951
-0.00924774
-0.00899176
-0.00902737
-0.00921668
-0.00914901
-0.00902582
-0.0089931
-0.00930995
-0.00915412
-0.00919113
-0.00907596
-0.00902602
-0.00892685
-0.00897449
-0.00889023
-0.00906592
-0.00898338
-0.00894292
-0.00888612
-0.00890468
-0.00883389
-0.00882658
-0.00876816
-0.00880442
-0.00884978
-0.00864824
-0.00870018
-0.00886604
-0.00885652
-0.00872897
-0.00873609
-0.00851466
-0.00857327
-0.00839545
-0.00846289
-0.00861252
-0.00863236
-0.00851276
-0.00854366
-0.00882934
-0.00879187
-0.00872603
-0.00870369
-0.00874754
-0.00869959
-0.00867189
-0.00863327
-0.00863537
-0.00862478
-0.00855744
-0.00855634
-0.00860307
-0.00857237
-0.00854287
-0.00851756

SCALARS U float
LOOKUP_TABLE default
0.018775
0.0186778
0.0184563
0.0183589
0.0185704
0.0182364
0.0191195
0.0189971
0.0188735
0.0184712
0.0181094
0.0184015
0.0180024
0.0187667
0.0186956
0.0194884
0.0193151
0.019149
0.0198659
0.0196208
0.0193915
0.0190075
0.0189072
0.0191941
0.0190433
0.0183849
0.0179469
0.0184469
0.0179796
0.0186784
0.0187334
0.0186106
0.0181385
0.0188979
0.0184652
0.0188751
0.0191148
0.0188627
0.0188879
0.0189513
0.0189301
0.0189928
0.0191841
0.0189889
0.0191342
0.0202221
0.0198932
0.0195863
0.0205206
0.0201055
0.0197115
0.0193159
0.0190955
0.0193519
0.0190399
0.0207397
0.020238
0.019746
0.0208728
0.0202809
0.0196729
0.0192753
0.0188399
0.0190583
0.0184527
0.0189367
0.0188529
0.0187901
0.0186212
0.0188566
0.0189594
0.0185556
0.0186178
0.018462
0.0181711
0.0178899
0.0174142
0.0180086
0.0180249
0.0170997
0.0170438
0.0193151
0.0189812
0.0198538
0.019686
0.0194521
0.0198757
0.0204761
0.0205263
0.0211226
0.0214117
0.0203563
0.0208513
0.0194585
0.0198045
0.0193632
0.0196649
0.0201962
0.0205986
0.0200139
0.020375
0.0217267
0.0222357
0.0222215
0.0228911
0.0213154
0.0217048
0.0225713
0.0233191
0.0227575
0.023494
0.0219999
0.0221905
0.0209766
0.021297
0.0207142
0.0209993
0.0215525
0.0217417
0.0212323
0.0214181
0.0191623
0.0194575
0.0188187
0.0191585
0.0198161
0.0201951
0.0196005
0.0200817
0.0182519
0.0187088
0.0173224
0.0179992
0.0193435
0.0200536
0.0189975
0.0201373
0.0205506
0.0208428
0.0205348
0.0208972
0.0210753
0.0212624
0.0211659
0.0213604
0.0207208
0.0212344
0.0211995
0.0219799
0.021563
0.0217068
0.0223893
0.0224082
0.0209392
0.0202466
0.0194947
0.0209635
0.0201615
0.0192381
0.0186905
0.0178487
0.018195
0.0170338
0.0210164
0.0200981
0.0189874
0.0211472
0.0201432
0.0188741
0.017664
0.0160797
0.0172636
0.0151449
0.0170135
0.0162412
0.0157928
0.0145176
0.0156578
0.0154469
0.0134141
0.0128313
0.0142127
0.0120407
0.0123423
0.00869591
0.00991292
0.00850306
0.00484123
0.00199086
0.0213738
0.0204051
0.0190967
0.0217439
0.0210088
0.0198916
0.0172774
0.0145846
0.0181276
0.0151822
0.0222979
0.0220691
0.0215359
0.0230491
0.0235757
0.0240635
0.020434
0.0182962
0.0244054
0.0245309
0.0106053
0.00507478
0.0105495
0.0043147
-0.000723936
-0.00461017
-0.00102329
-0.00201389
0.0149832
0.0115565
0.0248853
0.0269063
0.0111157
0.0158596
0.0317538
0.0377578
0.0157801
0.016825
0.0131496
0.0147834
0.0184668
0.0203693
0.0175605
0.0208288
0.00861533
0.0111806
0.00165533
0.00562951
0.0159434
0.0216396
0.0134386
0.0228423
0.022118
0.0233273
0.0237898
0.0257012
0.0238316
0.0236476
0.0263174
0.0258421
0.0267309
0.0297828
0.0312893
0.0361775
0.0304211
0.0292622
0.0367355
0.0342765
-0.00444088
0.0015745
0.00204185
0.00927954
0.0120366
0.0241476
0.0170946
0.0246703
0.0227976
0.0264259
0.0407487
0.0372841
0.0252851
0.0220652
0.0284893
0.0178875
0.0355311
0.0428301
0.0329149
0.0407224
0.0439836
0.040346
0.0447969
0.0431378
0.0205423
0.0239381
0.00845573
0.00448454
0.0309477
0.0350032
0.00809934
0.014911
0.022795
0.0234371
0.0226998
0.0231856
0.0222992
0.0223347
0.0224846
0.0227733
0.022145
0.0222288
0.0223072
0.0221844
0.0219061
0.0220629
0.0216319
0.0219169
0.0222518
0.02241
0.0223951
0.0229693
0.0216336
0.0215618
0.0209509
0.0208109
0.0218222
0.021153
0.0202098
0.020067
0.0196007
0.0194459
0.0203416
0.0197221
0.0222112
0.0214518
0.0229506
0.0218898
0.0204056
0.0197144
0.0202868
0.0193672
0.0215213
0.0219409
0.021612
0.0220549
0.0228197
0.0239794
0.0230788
0.0243641
0.0217469
0.0217883
0.022046
0.021297
0.022003
0.0221051
0.0200135
0.0183636
0.0241577
0.0226637
0.0244772
0.0231128
0.0202317
0.0187627
0.0209639
0.0194868
0.0217728
0.0219329
0.0178613
0.0201257
0.0226387
0.0231154
0.02417
0.0277636
0.0192145
0.0190107
0.0190174
0.0187545
0.0194272
0.019344
0.0189415
0.018633
0.0189234
0.0185909
0.0193458
0.0193588
0.0195963
0.0197368
0.0195617
0.020135
0.0198687
0.019916
0.0204943
0.0205833
0.0189194
0.0185805
0.0188995