# vtk DataFile Version 2.0
Gerris simulation version 1.3.2 (131206-155120)
ASCII
DATASET UNSTRUCTURED_GRID

POINTS 1089 float
-0.5 0.46875 0
-0.46875 0.46875 0
-0.5 0.5 0
-0.46875 0.5 0
-0.4375 0.46875 0
-0.4375 0.5 0
-0.5 0.4375 0
-0.46875 0.4375 0
-0.4375 0.4375 0
-0.40625 0.46875 0
-0.40625 0.5 0
-0.375 0.46875 0
-0.375 0.5 0
-0.40625 0.4375 0
-0.375 0.4375 0
-0.5 0.40625 0
-0.46875 0.40625 0
-0.4375 0.40625 0
-0.5 0.375 0
-0.46875 0.375 0
-0.4375 0.375 0
-0.40625 0.40625 0
-0.375 0.40625 0
-0.40625 0.375 0
-0.375 0.375 0
-0.34375 0.46875 0
-0.34375 0.5 0
-0.3125 0.46875 0
-0.3125 0.5 0
-0.34375 0.4375 0
-0.3125 0.4375 0
-0.28125 0.46875 0
-0.28125 0.5 0
-0.25 0.46875 0
-0.25 0.5 0
-0.28125 0.4375 0
-0.25 0.4375 0
-0.34375 0.40625 0
-0.3125 0.40625 0
-0.34375 0.375 0
-0.3125 0.375 0
-0.28125 0.40625 0
-0.25 0.40625 0
-0.28125 0.375 0
-0.25 0.375 0
-0.5 0.34375 0
-0.46875 0.34375 0
-0.4375 0.34375 0
-0.5 0.3125 0
-0.46875 0.3125 0
-0.4375 0.3125 0
-0.40625 0.34375 0
-0.375 0.34375 0
-0.40625 0.3125 0
-0.375 0.3125 0
-0.5 0.28125 0
-0.46875 0.28125 0
-0.4375 0.28125 0
-0.5 0.25 0
-0.46875 0.25 0
-0.4375 0.25 0
-0.40625 0.28125 0
-0.375 0.28125 0
-0.40625 0.25 0
-0.375 0.25 0
-0.34375 0.34375 0
-0.3125 0.34375 0
-0.34375 0.3125 0
-0.3125 0.3125 0
-0.28125 0.34375 0
-0.25 0.34375 0
-0.28125 0.3125 0
-0.25 0.3125 0
-0.34375 0.28125 0
-0.3125 0.28125 0
-0.34375 0.25 0
-0.3125 0.25 0
-0.28125 0.28125 0
-0.25 0.28125 0
-0.28125 0.25 0
-0.25 0.25 0
-0.21875 0.46875 0
-0.21875 0.5 0
-0.1875 0.46875 0
-0.1875 0.5 0
-0.21875 0.4375 0
-0.1875 0.4375 0
-0.15625 0.46875 0
-0.15625 0.5 0
-0.125 0.46875 0
-0.125 0.5 0
-0.15625 0.4375 0
-0.125 0.4375 0
-0.21875 0.40625 0
-0.1875 0.40625 0
-0.21875 0.375 0
-0.1875 0.375 0
-0.15625 0.40625 0
-0.125 0.40625 0
-0.15625 0.375 0
-0.125 0.375 0
-0.09375 0.46875 0
-0.09375 0.5 0
-0.0625 0.46875 0
-0.0625 0.5 0
-0.09375 0.4375 0
-0.0625 0.4375 0
-0.03125 0.46875 0
-0.03125 0.5 0
0 0.46875 0
0 0.5 0
-0.03125 0.4375 0
0 0.4375 0
-0.09375 0.40625 0
-0.0625 0.40625 0
-0.09375 0.375 0
-0.0625 0.375 0
-0.03125 0.40625 0
0 0.40625 0
-0.03125 0.375 0
0 0.375 0
-0.21875 0.34375 0
-0.1875 0.34375 0
-0.21875 0.3125 0
-0.1875 0.3125 0
-0.15625 0.34375 0
-0.125 0.34375 0
-0.15625 0.3125 0
-0.125 0.3125 0
-0.21875 0.28125 0
-0.1875 0.28125 0
-0.21875 0.25 0
-0.1875 0.25 0
-0.15625 0.28125 0
-0.125 0.28125 0
-0.15625 0.25 0
-0.125 0.25 0
-0.09375 0.34375 0
-0.0625 0.34375 0
-0.09375 0.3125 0
-0.0625 0.3125 0
-0.03125 0.34375 0
0 0.34375 0
-0.03125 0.3125 0
0 0.3125 0
-0.09375 0.28125 0
-0.0625 0.28125 0
-0.09375 0.25 0
-0.0625 0.25 0
-0.03125 0.28125 0
0 0.28125 0
-0.03125 0.25 0
0 0.25 0
-0.5 0.21875 0
-0.46875 0.21875 0
-0.4375 0.21875 0
-0.5 0.1875 0
-0.46875 0.1875 0
-0.4375 0.1875 0
-0.40625 0.21875 0
-0.375 0.21875 0
-0.40625 0.1875 0
-0.375 0.1875 0
-0.5 0.15625 0
-0.46875 0.15625 0
-0.4375 0.15625 0
-0.5 0.125 0
-0.46875 0.125 0
-0.4375 0.125 0
-0.40625 0.15625 0
-0.375 0.15625 0
-0.40625 0.125 0
-0.375 0.125 0
-0.34375 0.21875 0
-0.3125 0.21875 0
-0.34375 0.1875 0
-0.3125 0.1875 0
-0.28125 0.21875 0
-0.25 0.21875 0
-0.28125 0.1875 0
-0.25 0.1875 0
-0.34375 0.15625 0
-0.3125 0.15625 0
-0.34375 0.125 0
-0.3125 0.125 0
-0.28125 0.15625 0
-0.25 0.15625 0
-0.28125 0.125 0
-0.25 0.125 0
-0.5 0.09375 0
-0.46875 0.09375 0
-0.4375 0.09375 0
-0.5 0.0625 0
-0.46875 0.0625 0
-0.4375 0.0625 0
-0.40625 0.09375 0
-0.375 0.09375 0
-0.40625 0.0625 0
-0.375 0.0625 0
-0.5 0.03125 0
-0.46875 0.03125 0
-0.4375 0.03125 0
-0.5 0 0
-0.46875 0 0
-0.4375 0 0
-0.40625 0.03125 0
-0.375 0.03125 0
-0.40625 0 0
-0.375 0 0
-0.34375 0.09375 0
-0.3125 0.09375 0
-0.34375 0.0625 0
-0.3125 0.0625 0
-0.28125 0.09375 0
-0.25 0.09375 0
-0.28125 0.0625 0
-0.25 0.0625 0
-0.34375 0.03125 0
-0.3125 0.03125 0
-0.34375 0 0
-0.3125 0 0
-0.28125 0.03125 0
-0.25 0.03125 0
-0.28125 0 0
-0.25 0 0
-0.21875 0.21875 0
-0.1875 0.21875 0
-0.21875 0.1875 0
-0.1875 0.1875 0
-0.15625 0.21875 0
-0.125 0.21875 0
-0.15625 0.1875 0
-0.125 0.1875 0
-0.21875 0.15625 0
-0.1875 0.15625 0
-0.21875 0.125 0
-0.1875 0.125 0
-0.15625 0.15625 0
-0.125 0.15625 0
-0.15625 0.125 0
-0.125 0.125 0
-0.09375 0.21875 0
-0.0625 0.21875 0
-0.09375 0.1875 0
-0.0625 0.1875 0
-0.03125 0.21875 0
0 0.21875 0
-0.03125 0.1875 0
0 0.1875 0
-0.09375 0.15625 0
-0.0625 0.15625 0
-0.09375 0.125 0
-0.0625 0.125 0
-0.03125 0.15625 0
0 0.15625 0
-0.03125 0.125 0
0 0.125 0
-0.21875 0.09375 0
-0.1875 0.09375 0
-0.21875 0.0625 0
-0.1875 0.0625 0
-0.15625 0.09375 0
-0.125 0.09375 0
-0.15625 0.0625 0
-0.125 0.0625 0
-0.21875 0.03125 0
-0.1875 0.03125 0
-0.21875 0 0
-0.1875 0 0
-0.15625 0.03125 0
-0.125 0.03125 0
-0.15625 0 0
-0.125 0 0
-0.09375 0.09375 0
-0.0625 0.09375 0
-0.09375 0.0625 0
-0.0625 0.0625 0
-0.03125 0.09375 0
0 0.09375 0
-0.03125 0.0625 0
0 0.0625 0
-0.09375 0.03125 0
-0.0625 0.03125 0
-0.09375 0 0
-0.0625 0 0
-0.03125 0.03125 0
0 0.03125 0
-0.03125 0 0
0 0 0
0.03125 0.46875 0
0.03125 0.5 0
0.0625 0.46875 0
0.0625 0.5 0
0.03125 0.4375 0
0.0625 0.4375 0
0.09375 0.46875 0
0.09375 0.5 0
0.125 0.46875 0
0.125 0.5 0
0.09375 0.4375 0
0.125 0.4375 0
0.03125 0.40625 0
0.0625 0.40625 0
0.03125 0.375 0
0.0625 0.375 0
0.09375 0.40625 0
0.125 0.40625 0
0.09375 0.375 0
0.125 0.375 0
0.15625 0.46875 0
0.15625 0.5 0
0.1875 0.46875 0
0.1875 0.5 0
0.15625 0.4375 0
0.1875 0.4375 0
0.21875 0.46875 0
0.21875 0.5 0
0.25 0.46875 0
0.25 0.5 0
0.21875 0.4375 0
0.25 0.4375 0
0.15625 0.40625 0
0.1875 0.40625 0
0.15625 0.375 0
0.1875 0.375 0
0.21875 0.40625 0
0.25 0.40625 0
0.21875 0.375 0
0.25 0.375 0
0.03125 0.34375 0
0.0625 0.34375 0
0.03125 0.3125 0
0.0625 0.3125 0
0.09375 0.34375 0
0.125 0.34375 0
0.09375 0.3125 0
0.125 0.3125 0
0.03125 0.28125 0
0.0625 0.28125 0
0.03125 0.25 0
0.0625 0.25 0
0.09375 0.28125 0
0.125 0.28125 0
0.09375 0.25 0
0.125 0.25 0
0.15625 0.34375 0
0.1875 0.34375 0
0.15625 0.3125 0
0.1875 0.3125 0
0.21875 0.34375 0
0.25 0.34375 0
0.21875 0.3125 0
0.25 0.3125 0
0.15625 0.28125 0
0.1875 0.28125 0
0.15625 0.25 0
0.1875 0.25 0
0.21875 0.28125 0
0.25 0.28125 0
0.21875 0.25 0
0.25 0.25 0
0.28125 0.46875 0
0.28125 0.5 0
0.3125 0.46875 0
0.3125 0.5 0
0.28125 0.4375 0
0.3125 0.4375 0
0.34375 0.46875 0
0.34375 0.5 0
0.375 0.46875 0
0.375 0.5 0
0.34375 0.4375 0
0.375 0.4375 0
0.28125 0.40625 0
0.3125 0.40625 0
0.28125 0.375 0
0.3125 0.375 0
0.34375 0.40625 0
0.375 0.40625 0
0.34375 0.375 0
0.375 0.375 0
0.40625 0.46875 0
0.40625 0.5 0
0.4375 0.46875 0
0.4375 0.5 0
0.40625 0.4375 0
0.4375 0.4375 0
0.46875 0.46875 0
0.46875 0.5 0
0.5 0.46875 0
0.5 0.5 0
0.46875 0.4375 0
0.5 0.4375 0
0.40625 0.40625 0
0.4375 0.40625 0
0.40625 0.375 0
0.4375 0.375 0
0.46875 0.40625 0
0.5 0.40625 0
0.46875 0.375 0
0.5 0.375 0
0.28125 0.34375 0
0.3125 0.34375 0
0.28125 0.3125 0
0.3125 0.3125 0
0.34375 0.34375 0
0.375 0.34375 0
0.34375 0.3125 0
0.375 0.3125 0
0.28125 0.28125 0
0.3125 0.28125 0
0.28125 0.25 0
0.3125 0.25 0
0.34375 0.28125 0
0.375 0.28125 0
0.34375 0.25 0
0.375 0.25 0
0.40625 0.34375 0
0.4375 0.34375 0
0.40625 0.3125 0
0.4375 0.3125 0
0.46875 0.34375 0
0.5 0.34375 0
0.46875 0.3125 0
0.5 0.3125 0
0.40625 0.28125 0
0.4375 0.28125 0
0.40625 0.25 0
0.4375 0.25 0
0.46875 0.28125 0
0.5 0.28125 0
0.46875 0.25 0
0.5 0.25 0
0.03125 0.21875 0
0.0625 0.21875 0
0.03125 0.1875 0
0.0625 0.1875 0
0.09375 0.21875 0
0.125 0.21875 0
0.09375 0.1875 0
0.125 0.1875 0
0.03125 0.15625 0
0.0625 0.15625 0
0.03125 0.125 0
0.0625 0.125 0
0.09375 0.15625 0
0.125 0.15625 0
0.09375 0.125 0
0.125 0.125 0
0.15625 0.21875 0
0.1875 0.21875 0
0.15625 0.1875 0
0.1875 0.1875 0
0.21875 0.21875 0
0.25 0.21875 0
0.21875 0.1875 0
0.25 0.1875 0
0.15625 0.15625 0
0.1875 0.15625 0
0.15625 0.125 0
0.1875 0.125 0
0.21875 0.15625 0
0.25 0.15625 0
0.21875 0.125 0
0.25 0.125 0
0.03125 0.09375 0
0.0625 0.09375 0
0.03125 0.0625 0
0.0625 0.0625 0
0.09375 0.09375 0
0.125 0.09375 0
0.09375 0.0625 0
0.125 0.0625 0
0.03125 0.03125 0
0.0625 0.03125 0
0.03125 0 0
0.0625 0 0
0.09375 0.03125 0
0.125 0.03125 0
0.09375 0 0
0.125 0 0
0.15625 0.09375 0
0.1875 0.09375 0
0.15625 0.0625 0
0.1875 0.0625 0
0.21875 0.09375 0
0.25 0.09375 0
0.21875 0.0625 0
0.25 0.0625 0
0.15625 0.03125 0
0.1875 0.03125 0
0.15625 0 0
0.1875 0 0
0.21875 0.03125 0
0.25 0.03125 0
0.21875 0 0
0.25 0 0
0.28125 0.21875 0
0.3125 0.21875 0
0.28125 0.1875 0
0.3125 0.1875 0
0.34375 0.21875 0
0.375 0.21875 0
0.34375 0.1875 0
0.375 0.1875 0
0.28125 0.15625 0
0.3125 0.15625 0
0.28125 0.125 0
0.3125 0.125 0
0.34375 0.15625 0
0.375 0.15625 0
0.34375 0.125 0
0.375 0.125 0
0.40625 0.21875 0
0.4375 0.21875 0
0.40625 0.1875 0
0.4375 0.1875 0
0.46875 0.21875 0
0.5 0.21875 0
0.46875 0.1875 0
0.5 0.1875 0
0.40625 0.15625 0
0.4375 0.15625 0
0.40625 0.125 0
0.4375 0.125 0
0.46875 0.15625 0
0.5 0.15625 0
0.46875 0.125 0
0.5 0.125 0
0.28125 0.09375 0
0.3125 0.09375 0
0.28125 0.0625 0
0.3125 0.0625 0
0.34375 0.09375 0
0.375 0.09375 0
0.34375 0.0625 0
0.375 0.0625 0
0.28125 0.03125 0
0.3125 0.03125 0
0.28125 0 0
0.3125 0 0
0.34375 0.03125 0
0.375 0.03125 0
0.34375 0 0
0.375 0 0
0.40625 0.09375 0
0.4375 0.09375 0
0.40625 0.0625 0
0.4375 0.0625 0
0.46875 0.09375 0
0.5 0.09375 0
0.46875 0.0625 0
0.5 0.0625 0
0.40625 0.03125 0
0.4375 0.03125 0
0.40625 0 0
0.4375 0 0
0.46875 0.03125 0
0.5 0.03125 0
0.46875 0 0
0.5 0 0
-0.5 -0.03125 0
-0.46875 -0.03125 0
-0.4375 -0.03125 0
-0.5 -0.0625 0
-0.46875 -0.0625 0
-0.4375 -0.0625 0
-0.40625 -0.03125 0
-0.375 -0.03125 0
-0.40625 -0.0625 0
-0.375 -0.0625 0
-0.5 -0.09375 0
-0.46875 -0.09375 0
-0.4375 -0.09375 0
-0.5 -0.125 0
-0.46875 -0.125 0
-0.4375 -0.125 0
-0.40625 -0.09375 0
-0.375 -0.09375 0
-0.40625 -0.125 0
-0.375 -0.125 0
-0.34375 -0.03125 0
-0.3125 -0.03125 0
-0.34375 -0.0625 0
-0.3125 -0.0625 0
-0.28125 -0.03125 0
-0.25 -0.03125 0
-0.28125 -0.0625 0
-0.25 -0.0625 0
-0.34375 -0.09375 0
-0.3125 -0.09375 0
-0.34375 -0.125 0
-0.3125 -0.125 0
-0.28125 -0.09375 0
-0.25 -0.09375 0
-0.28125 -0.125 0
-0.25 -0.125 0
-0.5 -0.15625 0
-0.46875 -0.15625 0
-0.4375 -0.15625 0
-0.5 -0.1875 0
-0.46875 -0.1875 0
-0.4375 -0.1875 0
-0.40625 -0.15625 0
-0.375 -0.15625 0
[...]
POINT_DATA 1089
SCALARS T float
LOOKUP_TABLE default
0
0
0
0
0
0
0
0
0
0
0
0
0
0
0
0
0
0
0
0
0
0
0
0
0
0
0
0
0
0
0
0
0
0
0
0
0
0
0
0
0
0
0
0
0
0
0
0
0
0
0
0
0
0
0
0
0
0
0
0
0
0
0
0
0
0
0
0
0
0
0
0
0
0
0
0
0
0
0
0
0
0
0
0
0
0
0
0
0
0
0
0
0
0
0
0
0
0
0
0
0
0
0
0
0
0
0
0
0
0
0
0
0
0
0
0
0
0
0
0
0
0
0
0
0
0
0
0
0
0
0
0
0
0
0
0
0
0
0
0
0
0
0
0
0
0
0
0
0
0
0
0
0
0
0
0
0
0
0
0
0
0
0
0
0
0
0
0
0
0
0
0
0
0
0
0
0
0
0
0
0
0
0
0
0
0
0
0
0
0
0
0
0
0
0
0
0
0
0
0
0
0
0
0
0
0
0
0
0.00052229
0
0
0
0
0
0
0
0
0
0
0.066957
0.221286
0
0
0.366677
0.449555
0
0
0
0
0
0
0
0
0
0
0
0
0
0
0
0
0
0
0
0
0
0
0
0
0
0
0
0
0
0
0
0
0
0
0
0
0
0
0
0
0
0
0.471739
0.435201
0
0
0.338514
0.179353
0
0
0
0
0
0
0
0
0
0
0.0420312
0
0
0
0
0
0
0
0
0
0
0
0
0
0
0
0
0
0
0
0
0
0
0
0
0
0
0
0
0
0
0
0
0
0
0
0
0
0
0
0
0
0
0
0
0
0
0
0
0
0
0
0
0
0
0
0
0.103172
0
0.000152568
0.322958
0.45284
0
0
0
0
0
0
0
0
0.000152568
0
0.377309
0.15184
0
0
0.00758569
0
0
0
0
0
0
0
0
0
0
0
0
0
0
0
0
0
0
0
0
0
0
0
0
0
0
0
0
0
0
0
0
0
0
0
0
0
0
0
0
0
0
0
0
0
0
0
0
0
0
0
0
0
0
0
0
0
0
0
0
0
0
0
0
0
0
0
0
0
0
0
0
0
0.0695675
0.422202
0.206679
0.706142
0.82242
0.952687
0.999462
1
0.269175
0.769175
0.185481
0.685078
1
1
0.999597
1
0.877156
0.51232
1
0.775278
0.118066
0
0.275278
0
1
0.812391
1
0.716734
0.312391
0
0.216734
0
0.0534172
0.400599
0
0.0975844
0.823901
0.961877
0.325355
0.464852
0
0
0
0
0.0010516
0.00297472
0
0
0.859479
0.444617
0.361402
0.125475
0.0702963
0
0.00115449
0
0.00192313
0
0
0
0
0
0
0
0
0
0
0
0
0
0
0
0
0
0
0
0
0
0
0
0
0
0
0
0
0
0
0
0
0
0
0
0
0
0
0
0
0
0
0
0
0
0
0
0
0
0
0
0
0
0
0
0
0
0
0
0
0
0
0
0
0
0
0
0
0
0
0
0
0
0
0
0
0.0842067
0.0535965
0.251605
0.384363
0.747642
0
0.00597679
0.320254
0
0.0337715
0.513842
0.810836
0.996559
0.98007
1
0.514443
0.721286
0.947486
1
0.866677
0.949555
1
1
1
1
1
1
1
1
1
1
0
0.0307291
0.497743
0
0.00293446
0.277239
0.967014
1
0.756586
0.982281
0
0
0.0572909
0
0
0
0.314678
0.659899
0.0251054
0.177618
1
1
1
1
1
1
1
1
0.897365
0.994852
0.42385
0.635494
1
1
0.790064
0.884109
0.971739
0.935201
1
1
0.838514
0.677945
1
0.998592
1
1
1
1
1
1
1
1
0.456354
0.202571
0.914323
0.684595
0.0368404
0
0.31561
0.0467457
1
0.982024
1
1
0.708624
0.2266
0.901444
0.401444
1
1
1
1
1
1
1
1
1
1
0.921475
0.90355
1
0.999041
0.824758
0.676302
1
1
1
0.974968
0.893263
0.393263
0.684601
0.209633
0.913536
0.669066
0.456315
0.194098
0.292531
0.03796
0.029603
0
0
0
0
0
0
0
0
0
0
0
0
0
0
0
0
0
0
0
0
0
0.0264857
0.140641
0
0
0.290064
0.384109
0
0
0
0
0
0
0
0
0
0
0
0
0
0
0
0
0
0
0
0
0
0
0
0
0
0
0
0
0
0
0
0
0
0
0
0
0
0
0
0
0
0
0
0
0
0
0.421475
0.40355
0
0
0.324758
0.177261
0
0
0
0
0
0
0
0
0
0
0.042779
0
0
0
0
0
0
0
0
0
0
0
0
0
0
0
0
0
0
0
0
0
0
0
0
0
0
0
0
0
0
0
0
0
0
0
0
0
0
0
0
0
0
0
0
0
0
0
0
0
0
0.0102885
4.36239e-11
2.26754e-08
0.170245
0.398091
0
0.125707
0
0.235493
0.535663
0.898091
0.735493
1
0.00798222
0.00798219
0.439383
0.205313
0
0
0.00406483
0
0.931201
0.464248
0.9998
0.530027
0.0211812
0
0.0302266
0
0
0.143084
0
0.0230093
0.593685
0.933319
0.22361
0.433319
0
0
0
0
0
0
0
0
0.885196
0.415589
0.422604
0.189886
0.0131102
0
0
0
0.0374074
0.0374074
0
0
0
0
0
0
0
0
0
0
0
0
0
0
0
0
0
0
0
0
0
0
0
0
0
0
0
0
0
0
0
0
0
0
0
0
0
0
0
0
0
0
0
0
0
0
0
0
0
0
0
0
0
0
0
0
0
0
0
0
0
0
0
0
0
0
0
0
0
0
0
0
0
0
0
0
0
0
0
0
0
0
0
0
0
0
0
0
0
0
0
0
0
0
0
0
0
0
0
0
0
0
0
0
0
0
0
0
0
0
0
0
0
0
0
0
0
0
0
0
0
0
0
0
0
0
0
0
0
0
0
0
0
0
0
0
0
0
0
0
0
0
0
0
0
0
0
0
0
0
0
0
0
0
0
0
0
0
0
0
0
0
0
0
0
0
0
0
0
0
0
0
0
0
0
0
0
0
0
0
0
0
0
0
0
0
0
0
0
0
0
0
0
0
0
0
0
0

SCALARS P float
LOOKUP_TABLE default
-0.00673558
-0.00608114
-0.0068621
-0.00616296
-0.00546541
-0.00547783
-0.00660941
-0.00599961
-0.00543298
-0.00490372
-0.00483996
-0.004418
-0.00427577
-0.00492412
-0.00449201
-0.006482
-0.00590504
-0.00537293
-0.00633848
-0.00578556
-0.0052768
-0.00489976
-0.00450201
-0.00482611
-0.00444828
-0.00403416
-0.00382153
-0.00378109
-0.00352103
-0.00415685
-0.00393893
-0.0036734
-0.00338726
-0.00371456
-0.00341676
-0.00385095
-0.0038984
-0.00419606
-0.00399742
-0.00415734
-0.00396627
-0.00391754
-0.00396341
-0.00388573
-0.00392342
-0.00617252
-0.00563762
-0.0051438
-0.00598345
-0.00546281
-0.00497711
-0.00470479
-0.00433437
-0.0045399
-0.00416501
-0.00578062
-0.00526952
-0.00478405
-0.0055834
-0.00507469
-0.0045783
-0.00433742
-0.00394487
-0.00410719
-0.00367967
-0.00404556
-0.00385051
-0.00386563
-0.00365481
-0.00375996
-0.00378237
-0.00354404
-0.00354247
-0.00362168
-0.00338402
-0.00331501
-0.00303572
-0.0032444
-0.00321175
-0.00285611
-0.00278465
-0.00391045
-0.00361897
-0.00425995
-0.00399193
-0.00408622
-0.0044147
-0.00475243
-0.00452076
-0.00536713
-0.00517305
-0.00487666
-0.00545931
-0.00414051
-0.00445113
-0.00408577
-0.00437719
-0.00489078
-0.00545336
-0.00479548
-0.00534142
-0.00608231
-0.0059302
-0.00687829
-0.00677666
-0.00614034
-0.00690415
-0.00770462
-0.00765598
-0.00852908
-0.00851973
-0.0076982
-0.00850539
-0.00611462
-0.00686773
-0.0059883
-0.00674429
-0.007652
-0.00847031
-0.00754311
-0.00841406
-0.00392533
-0.00419565
-0.00365888
-0.00390199
-0.00459235
-0.00512246
-0.00426989
-0.00477279
-0.00329557
-0.0035045
-0.00283293
-0.00300876
-0.00383263
-0.0042898
-0.00330551
-0.00372993
-0.00575677
-0.00652858
-0.00538588
-0.00617226
-0.00738329
-0.00836824
-0.00710384
-0.00818318
-0.0048731
-0.00565728
-0.00431299
-0.00506613
-0.0066955
-0.00785775
-0.00618627
-0.00726326
-0.00541296
-0.00489511
-0.00437037
-0.00530844
-0.0047639
-0.0041851
-0.00385365
-0.00337007
-0.00359209
-0.00301942
-0.00530653
-0.00470087
-0.00402695
-0.00546776
-0.00476384
-0.0039482
-0.00331721
-0.00261789
-0.00306336
-0.00215733
-0.00294689
-0.00261872
-0.00250725
-0.00211291
-0.00239765
-0.00228598
-0.00184222
-0.00168604
-0.00199448
-0.0015455
-0.00135057
-0.000835788
-0.0012415
-0.00104662
-0.000512431
-0.000283892
-0.00584162
-0.00502235
-0.00401643
-0.00649715
-0.00555455
-0.0042596
-0.00286789
-0.00161071
-0.00267105
-0.000822577
-0.00760149
-0.00665233
-0.00508536
-0.0090954
-0.00819166
-0.00616245
-0.00286248
0.000228161
-0.0028426
0.00198226
-0.000528313
1.85621e-05
0.000695485
0.0011931
0.000334191
0.000598677
0.00135772
0.00160079
0.0026479
0.00304029
0.00713877
0.012376
0.00298759
0.00313153
0.0177438
0.0210425
-0.00229852
-0.0024416
-0.00166645
-0.00178783
-0.00271302
-0.00310342
-0.0020499
-0.00239362
-0.00100777
-0.00113235
-0.000238903
-0.000394907
-0.00142631
-0.00176447
-0.000780148
-0.00119874
-0.00368201
-0.0043732
-0.00287406
-0.00331168
-0.00555171
-0.00656181
-0.00380577
-0.0035591
-0.00220671
-0.00255799
-0.00179757
-0.00260705
-0.00258767
-0.00127838
-0.00345684
-0.00334491
0.000645624
0.000442061
0.0016589
0.00141859
-6.44188e-05
-0.000559956
0.000816673
0.000376007
0.00316499
0.00292725
0.0218072
0.0202515
0.00235889
0.0021358
0.0161921
0.01022
-0.0013038
-0.00276832
-0.000340058
-0.00260241
-0.0044713
-0.00571932
-0.00511729
-0.00723792
0.00161395
-0.00209313
0.00556895
-0.000875139
-0.00612931
-0.00865729
-0.00695328
-0.009681
-0.00930486
-0.00932402
-0.00999335
-0.0100374
-0.00927732
-0.00996882
-0.0105825
-0.0106392
-0.0110447
-0.0111223
-0.0105758
-0.0110568
-0.00927379
-0.0100007
-0.00930416
-0.0101319
-0.0106479
-0.0111802
-0.0108667
-0.0115043
-0.0113624
-0.0114636
-0.0114901
-0.0116343
-0.0113869
-0.0114779
-0.0114568
-0.0116474
-0.011269
-0.011495
-0.0113964
-0.0111623
-0.0115621
-0.0116133
-0.0119743
-0.0119331
-0.0114659
-0.0111594
-0.0116555
-0.0112206
-0.00944413
-0.0105014
-0.00940134
-0.0106943
-0.0113083
-0.012037
-0.0115841
-0.0127267
-0.00950164
-0.0117231
-0.00967609
-0.00109074
-0.0127357
-0.013341
0.0255853
0.0446722
-0.0127041
-0.0125619
-0.013773
-0.0133047
-0.0120194
-0.0113274
-0.0123315
-0.011308
-0.0149186
-0.0147567
0.0331765
0.00155945
-0.0127794
-0.0110709
-0.0135391
-0.0108362
-0.0109344
-0.0111941
-0.0104971
-0.0107734
-0.0107759
-0.0103075
-0.00996838
-0.0102519
-0.00937984
-0.00965736
-0.00975587
-0.0091613
-0.0106903
-0.0101719
-0.0106247
-0.0100382
-0.0095804
-0.00897044
-0.00939639
-0.00877101
-0.00874713
-0.0090078
-0.00808594
-0.00831848
-0.00853496
-0.00789235
-0.00741043
-0.00760344
-0.00673558
-0.006894
-0.00724607
-0.00660941
-0.0083435
-0.00771345
-0.00814453
-0.00752711
-0.00708946
-0.006482
-0.00692271
-0.00633848
-0.0105417
-0.00986575
-0.0103394
-0.00958582
-0.00917028
-0.00853803
-0.0088603
-0.00824478
-0.00995874
-0.00914695
-0.00955982
-0.00863439
-0.00844929
-0.00788805
-0.00801334
-0.00751956
-0.00792008
-0.00732035
-0.0076542
-0.0070844
-0.00673647
-0.00617252
-0.00652696
-0.00598345
-0.00735233
-0.00682811
-0.00705111
-0.00657897
-0.00630389
-0.00578062
-0.00608953
-0.0055834
-0.00162551
0.0375282
0.015598
0.0709902
0.0880438
0.108577
0.109838
0.11285
0.0238748
0.0763827
0.0137175
0.0671622
0.107957
0.110543
0.10806
0.11123
0.0977619
0.0460783
0.11096
0.0773783
-0.000654362
-0.0100404
0.021048
-0.00526553
0.106596
0.0790075
0.106981
0.0699563
0.0283568
-0.000337856
0.0179146
-0.00219987
-0.00208046
0.0363166
-0.00972952
-0.000365035
0.0914576
0.11194
0.0288838
0.0465741
-0.0111574
-0.0139053
-0.0120085
-0.0135808
-0.0163032
-0.0189831
-0.0151684
-0.0189639
0.0934973
0.0402527
0.0288758
-0.000278117
-0.000521685
-0.00653974
-0.0112526
-0.00950541
-0.0203952
-0.0167974
-0.0209624
-0.0167551
-0.0127316
-0.0111193
-0.0129603
-0.0118242
-0.00881566
-0.00788823
-0.0061221
-0.00646611
-0.00745862
-0.00710607
-0.00665913
-0.00664922
-0.00357438
-0.00533043
-0.00460981
-0.00584132
-0.00611778
-0.00640978
-0.0064456
-0.00666557
-0.00675003
-0.00635244
-0.00648865
-0.00619441
-0.00590514
-0.00541296
-0.00579432
-0.00530844
-0.00640885
-0.00618996
-0.00664761
-0.00642466
-0.00581282
-0.00530653
-0.0060276
-0.00546776
-0.00696692
-0.00713457
-0.00883973
-0.00841647
-0.00728103
-0.00728541
-0.00823854
-0.00809041
-0.0102087
-0.00954962
-0.0110054
-0.0103868
-0.00922071
-0.00901157
-0.0100995
-0.00995474
-0.00717125
-0.00690707
-0.00791162
-0.00763018
-0.00646984
-0.00584162
-0.00717608
-0.00649715
-0.00883439
-0.00860441
-0.00987395
-0.0097833
-0.00822301
-0.00760149
-0.00957557
-0.0090954
-0.0112225
-0.010767
-0.00875288
-0.0142066
-0.0150484
-0.00705541
-0.000986885
0.0129869
0.0176983
0.0383387
-0.0177808
-0.0201129
0.00955799
-0.0202715
-0.0209395
0.0268289
0.0508494
0.0570969
0.0694772
0.0608392
0.0243034
0.0314456
0.0435444
0.0446947
0.0375806
0.040969
0.0449078
0.0447346
0.0509939
0.048291
0.053674
0.0499104
0.0468949
0.0461496
0.0478954
0.046906
-0.0204203
-0.0211982
0.0250657
-0.0180981
-0.020131
0.0058503
0.0679624
0.0606539
0.04611
0.0552815
-0.0147979
-0.0149316
-0.00878861
-0.0123013
-0.0113634
-0.00886417
0.0129583
0.0329707
-0.00313134
0.00844616
0.0532194
0.0494238
0.0494521
0.0468969
0.047451
0.0465161
0.045745
0.045154
0.0393657
0.0419096
0.0195775
0.0265386
0.0428073
0.0429684
0.0328551
0.0366436
0.0416869
0.0401166
0.0446219
0.0446587
0.0360357
0.0290729
0.0448542
0.0445165
0.0460164
0.0464341
0.0467445
0.0473243
0.0474943
0.0491734
0.0486706
0.0509317
0.0213478
0.00772807
0.042337
0.0353042
-0.0065297
-0.0118689
0.0100842
-0.0128683
0.0518505
0.0584504
0.0544307
0.0623593
0.0408825
-0.000614092
0.0603092
0.0152184
0.046408
0.0470549
0.0451348
0.0457489
0.0484426
0.0507299
0.0469558
0.0487017
0.0430872
0.0435662
0.0380572
0.0376167
0.0441752
0.0442007
0.0344896
0.0276779
0.0541852
0.0617533
0.051131
0.0562749
0.0589182
0.0144262
0.0378162
-0.00214376
0.0416061
0.0331253
0.0191941
0.00584578
0.00849522
-0.013086
-0.00689036
-0.0115012
-0.0105909
-0.00931109
-0.00696313
-0.00942725
-0.00811083
-0.00622173
-0.00407187
0.000552885
-0.00409478
-0.000974678
-0.00855978
-0.00728205
-0.00569487
-0.00799969
-0.00686209
-0.00558265
-0.00400227
-0.00199708
-0.00425377
-0.00279861
0.00513587
0.00906834
0.00181174
0.00235333
0.014105
0.0175473
0.00228886
0.00238843
-0.000245187
0.000368651
-0.00151739
-0.000894367
0.00052851
0.000669987
-0.000638033
-0.00054221
-0.00758436
-0.00657262
-0.00550222
-0.007283
-0.00639095
-0.00548777
-0.00442081
-0.00333476
-0.004601
-0.00375718
-0.00705919
-0.00626621
-0.00548756
-0.006894
-0.00616296
-0.00547783
-0.00474315
-0.00406244
-0.00483996
-0.00427577
-0.00239713
-0.00185427
-0.00304524
-0.00259639
-0.00161088
-0.00156031
-0.00238604
-0.00236687
-0.00349941
-0.00312737
-0.00382153
-0.00352103
-0.00295306
-0.00296034
-0.00338726
-0.00341676
0.018694
0.0174977
0.0021933
0.00120239
0.0136213
0.00713675
-0.000156986
-0.0010101
0.000510448
-0.000243678
-0.000757938
-0.00136084
-0.00137811
-0.00231754
-0.00225631
-0.00316846
0.00196582
-0.00315995
-0.00157119
-0.00430161
-0.00787883
-0.0100001
-0.00752386
-0.00929172
-0.00319244
-0.00511137
-0.00415051
-0.00567002
-0.00725786
-0.00878789
-0.00730225
-0.00861628
-0.00177414
-0.00228014
-0.00257768
-0.00302481
-0.0030337
-0.00387688
-0.003677
-0.00444326
-0.0031671
-0.00357176
-0.00361897
-0.00399193
-0.00415387
-0.00486134
-0.00452076
-0.00517305
-0.00483017
-0.00606998
-0.00532345
-0.00637211
-0.00737275
-0.00852346
-0.00746666
-0.00848745
-0.0056802
-0.00661068
-0.0059302
-0.00677666
-0.00757547
-0.00850247
-0.00765598
-0.00851973
-0.0131404
-0.0134097
-0.0145755
-0.0100931
-0.0129015
-0.0174098
0.0180381
0.059729
-0.0172626
0.0116684
-0.0193627
0.0308087
0.0865006
0.159672
0.125494
0.18098
-0.021749
-0.0172987
0.0658859
0.0219873
-0.0134158
-0.0126724
-0.0125944
-0.0131115
0.171381
0.077067
0.187146
0.093953
-0.00929789
-0.013741
-0.00403072
-0.0116618
-0.0192592
0.0132921
-0.0185337
-0.0114345
0.103147
0.178092
0.0304594
0.0767379
-0.0156497
-0.0161789
-0.0125577
-0.0138764
-0.0172314
-0.0221348
-0.0148623
-0.0197493
0.179595
0.081307
0.0924141
0.0380697
-0.00824192
-0.0140438
-0.0215418
-0.0202815
-0.0110613
-0.0139196
-0.0285411
-0.0305629
-0.0287504
-0.0230504
-0.0264381
-0.0225598
-0.0118366
-0.0113129
-0.0123087
-0.0121016
-0.0110804
-0.0110206
-0.0119847
-0.0120817
-0.0132318
-0.0132887
-0.0131935
-0.0139442
-0.0131026
-0.013241
-0.0139388
-0.0141547
-0.0110747
-0.0112046
-0.0123478
-0.012818
-0.0113261
-0.0112225
-0.0134848
-0.0142066
-0.0136469
-0.0144442
-0.014632
-0.0156086
-0.0157579
-0.0177808
-0.0173259
-0.0202715
-0.0153298
-0.0154392
-0.0186103
-0.0171669
-0.0150519
-0.0149702
-0.0160813
-0.0154696
-0.0200298
-0.0178473
-0.0199804
-0.0177572
-0.0164207
-0.0154443
-0.0162108
-0.0150413
-0.0152262
-0.0160371
-0.0152986
-0.0156336
-0.0176168
-0.0204203
-0.0165342
-0.0180981
-0.0148764
-0.0146626
-0.0141892
-0.013561
-0.0147131
-0.0147979
-0.0130146
-0.0123013
-0.0113951
-0.012828
-0.010571
-0.0118288
-0.0139047
-0.0172363
-0.0127264
-0.0148704
-0.010036
-0.0112133
-0.00973107
-0.0107516
-0.0120822
-0.0135512
-0.0115418
-0.0125782
-0.0213674
-0.0226718
-0.0173243
-0.0185697
-0.0218512
-0.0198592
-0.0188237
-0.0178684
-0.0149702
-0.0157745
-0.0135427
-0.0141808
-0.0161685
-0.0157546
-0.0145354
-0.0143407
-0.00953672
-0.0104484
-0.0094095
-0.0102319
-0.0111835
-0.011969
-0.0109118
-0.0115453
-0.00935383
-0.0101102
-0.00932402
-0.0100374
-0.0107432
-0.0112811
-0.0106392
-0.0111223
-0.0126373
-0.0130799
-0.012051
-0.012376
-0.0133222
-0.0132113
-0.0125262
-0.0124252
-0.0116828
-0.0119172
-0.0114636
-0.0116343
-0.0119901
-0.0118693
-0.0116474
-0.011495
-0.0183473
-0.0166766
-0.016907
-0.0156396
-0.0153683
-0.0142545
-0.0145001
-0.0134438
-0.0152082
-0.0143514
-0.0139562
-0.0133114
-0.0134569
-0.0125433
-0.0125644
-0.0117535
-0.0133162
-0.0124819
-0.0124711
-0.0115355
-0.0116295
-0.0105909
-0.0105519
-0.00942725
-0.0116274
-0.0106903
-0.0109008
-0.0100039
-0.0096838
-0.00855978
-0.00904252
-0.00799969
-0.0129127
-0.0124055
-0.0121493
-0.0117043
-0.0117738
-0.0110556
-0.0111374
-0.010481
-0.0115896
-0.0111692
-0.0111941
-0.0107734
-0.0106369
-0.0100211
-0.0102519
-0.00965736
-0.0102739
-0.00943617
-0.00975692
-0.00897735
-0.0085398
-0.00758436
-0.0081497
-0.007283
-0.0093416
-0.00861311
-0.0090078
-0.00831848
-0.00784775
-0.00705919
-0.00760344
-0.0068621

SCALARS U float
LOOKUP_TABLE default
0.0210257
0.0217915
0.020853
0.0217501
0.0224686
0.0226199
0.0213031
0.0219202
0.0224365
0.0230258
0.0233763
0.0234274
0.0239673
0.0228295
0.0230751
0.0216629
0.0221501
0.0225277
0.0221237
0.0224914
0.0227449
0.0227793
0.0228877
0.0228712
0.022855
0.0236384
0.0243439
0.0236325
0.0244573
0.0231496
0.0230402
0.0233769
0.0242209
0.0228858
0.0236268
0.02274
0.0222748
0.0228366
0.0226212
0.0226821
0.0223501
0.0222472
0.0217464
0.0218688
0.0212725
0.0226974
0.02295
0.0230907
0.0233886
0.0235268
0.0235658
0.0231048
0.0229738
0.023483
0.0232502
0.024181
0.0242104
0.0241661
0.0250375
0.0249765
0.0248818
0.0240108
0.0236993
0.0246946
0.0243441
0.02268
0.0222174
0.0228392
0.0222334
0.0215929
0.020841
0.0214288
0.0204551
0.0231852
0.0224333
0.0237577
0.0228719
0.0214151
0.020149
0.0216129
0.0199767
0.0222503
0.0228079
0.0215922
0.0219449
0.0217161
0.0211574
0.0210292
0.0212031
0.0206458
0.0206904
0.0206944
0.0204039
0.0211824
0.0206386
0.0206251
0.020011
0.0202063
0.0199668
0.01953
0.0192779
0.0204774
0.0204333
0.02051
0.0204046
0.0203361
0.0204884
0.0207037
0.0205536
0.0209311
0.0207499
0.0208452
0.0212717
0.0199962
0.0203115
0.0193716
0.01986
0.0209492
0.0217616
0.0208746
0.022265
0.0200303
0.0192538
0.0193895
0.0183374
0.0186274
0.0182635
0.017431
0.0167903
0.0187272
0.0172735
0.0180839
0.0160926
0.0159338
0.014813
0.014164
0.0123643
0.0183287
0.0189029
0.0166088
0.0169629
0.020253
0.0222801
0.0182715
0.020737
0.0140566
0.013699
0.0106788
0.00910375
0.014282
0.0170812
0.00789885
0.00978676
0.0258928
0.0257836
0.0256947
0.0266566
0.0265773
0.0265818
0.0255418
0.02522
0.0265577
0.0263496
0.0272396
0.0272875
0.027497
0.0275744
0.0278448
0.028352
0.0277173
0.0277094
0.0288383
0.0288656
0.024624
0.0236478
0.0258159
0.0248103
0.0221326
0.0200342
0.0230427
0.0204005
0.0273108
0.0263585
0.0283304
0.0273023
0.0243556
0.0210862
0.0251666
0.0215565
0.0275177
0.0280307
0.0287942
0.0269214
0.0275771
0.028247
0.0292226
0.0284783
0.0274653
0.0235608
0.0255616
0.026101
0.0259343
0.0232309
0.0233945
0.0220783
0.0217371
0.0119556
0.0143853
0.0026346
0.0268955
0.0253354
0.0183374
0.0152771
0.0233156
0.020504
0.0146815
0.0159244
0.00295045
0.000784127
-0.00172668
0.00183229
0.00397703
0.0106116
0.00683001
0.0120998
0.017534
0.0148698
0.0171719
0.0137541
0.0122551
0.00973432
0.0104987
0.00749434
0.0170114
0.0127783
0.0170284
0.0123927
0.00896513
0.00579899
0.00832789
0.005144
0.00710097
0.00436211
0.00448041
0.00143598
0.000957801
-0.000787418
-0.002904
-0.010404
0.00308248
0.000893041
0.00272385
0.00150873
-0.00217239
-0.0103657
0.000734373
-0.000763094
0.0173145
0.0139808
0.0184129
0.0204683
0.0106207
0.00755632
0.0204368
0.017983
0.0195583
0.0279356
0.0176352
0.0229672
0.0328542
0.0333129
0.0279352
0.0327369
0.00492366
0.00344917
0.0135195
0.00859437
0.00389125
0.00830864
0.0068102
0.0112786
0.0287535
0.0191854
0.0353415
0.0288949
0.0112966
0.0112481
0.0170373
0.0126755
0.0210142
0.0208034
0.0207629
0.0205215
0.0215754
0.0215116
0.0199168
0.0197209
0.0184924
0.0184307
0.0205778
0.0187131
0.0225461
0.0229561
0.0239351
0.0254118
0.0219387
0.0191993
0.0244639
0.0201765
0.0169033
0.0169679
0.0156843
0.0157504
0.0165937
0.0151322
0.0151047
0.0150202
0.0150485
0.0147748
0.0147048
0.0149353
0.0159412
0.013914
0.0147523
0.0117087
0.013726
0.0144329
0.0120717
0.0136203
0.0254552
0.0291981
0.0268251
0.0358172
0.0287864
0.0219227
0.0372341
0.0251963
0.0273925
0.0436287
0.0184505
0.0307366
0.0477912
0.0291629
0.0331773
0.0215535
0.0126599
0.00803647
0.00804784
0.000973949
0.00979909
0.0128963
0.00661634
0.0131387
0.00162456
-0.00856825
0.00500393
-0.00206364
0.00280911
0.0148631
0.0073656
0.0198887
0.0153834
0.014947
0.0159902
0.0154354
0.0155457
0.0163752
0.0167471
0.0161357
0.0175895
0.0169745
0.0172632
0.0181615
0.0154787
0.0166599
0.0153049
0.0169756
0.017754
0.0187524
0.0183337
0.0194519
0.0184646
0.0178938
0.0193432
0.018857
0.0190269
0.0198456
0.0202029
0.019836
0.0210257
0.020764
0.0206074
0.0213031
0.0196308
0.0204037
0.0203413
0.0210619
0.0210797
0.0216629
0.0216493
0.0221237
0.0153684
0.0175618
0.016517
0.0189445
0.0191602
0.0203622
0.0205286
0.0216404
0.019581
0.0216403
0.0251215
0.025857
0.0226916
0.0233756
0.0257367
0.0255582
0.0212222
0.0218581
0.0223538
0.0228303
0.0223378
0.0226974