# vtk DataFile Version 2.0
Gerris simulation version 1.3.2 (131206-155120)
ASCII
DATASET UNSTRUCTURED_GRID

POINTS 1089 float
-0.5 0.46875 0
-0.46875 0.46875 0
-0.5 0.5 0
-0.46875 0.5 0
-0.4375 0.46875 0
-0.4375 0.5 0
-0.5 0.4375 0
-0.46875 0.4375 0
-0.4375 0.4375 0
-0.40625 0.46875 0
-0.40625 0.5 0
-0.375 0.46875 0
-0.375 0.5 0
-0.40625 0.4375 0
-0.375 0.4375 0
-0.5 0.40625 0
-0.46875 0.40625 0
-0.4375 0.40625 0
-0.5 0.375 0
-0.46875 0.375 0
-0.4375 0.375 0
-0.40625 0.40625 0
-0.375 0.40625 0
-0.40625 0.375 0
-0.375 0.375 0
-0.34375 0.46875 0
-0.34375 0.5 0
-0.3125 0.46875 0
-0.3125 0.5 0
-0.34375 0.4375 0
-0.3125 0.4375 0
-0.28125 0.46875 0
-0.28125 0.5 0
-0.25 0.46875 0
-0.25 0.5 0
-0.28125 0.4375 0
-0.25 0.4375 0
-0.34375 0.40625 0
-0.3125 0.40625 0
-0.34375 0.375 0
-0.3125 0.375 0
-0.28125 0.40625 0
-0.25 0.40625 0
-0.28125 0.375 0
-0.25 0.375 0
-0.5 0.34375 0
-0.46875 0.34375 0
-0.4375 0.34375 0
-0.5 0.3125 0
-0.46875 0.3125 0
-0.4375 0.3125 0
-0.40625 0.34375 0
-0.375 0.34375 0
-0.40625 0.3125 0
-0.375 0.3125 0
-0.5 0.28125 0
-0.46875 0.28125 0
-0.4375 0.28125 0
-0.5 0.25 0
-0.46875 0.25 0
-0.4375 0.25 0
-0.40625 0.28125 0
-0.375 0.28125 0
-0.40625 0.25 0
-0.375 0.25 0
-0.34375 0.34375 0
-0.3125 0.34375 0
-0.34375 0.3125 0
-0.3125 0.3125 0
-0.28125 0.34375 0
-0.25 0.34375 0
-0.28125 0.3125 0
-0.25 0.3125 0
-0.34375 0.28125 0
-0.3125 0.28125 0
-0.34375 0.25 0
-0.3125 0.25 0
-0.28125 0.28125 0
-0.25 0.28125 0
-0.28125 0.25 0
-0.25 0.25 0
-0.21875 0.46875 0
-0.21875 0.5 0
-0.1875 0.46875 0
-0.1875 0.5 0
-0.21875 0.4375 0
-0.1875 0.4375 0
-0.15625 0.46875 0
-0.15625 0.5 0
-0.125 0.46875 0
-0.125 0.5 0
-0.15625 0.4375 0
-0.125 0.4375 0
-0.21875 0.40625 0
-0.1875 0.40625 0
-0.21875 0.375 0
-0.1875 0.375 0
-0.15625 0.40625 0
-0.125 0.40625 0
-0.15625 0.375 0
-0.125 0.375 0
-0.09375 0.46875 0
-0.09375 0.5 0
-0.0625 0.46875 0
-0.0625 0.5 0
-0.09375 0.4375 0
-0.0625 0.4375 0
-0.03125 0.46875 0
-0.03125 0.5 0
0 0.46875 0
0 0.5 0
-0.03125 0.4375 0
0 0.4375 0
-0.09375 0.40625 0
-0.0625 0.40625 0
-0.09375 0.375 0
-0.0625 0.375 0
-0.03125 0.40625 0
0 0.40625 0
-0.03125 0.375 0
0 0.375 0
-0.21875 0.34375 0
-0.1875 0.34375 0
-0.21875 0.3125 0
-0.1875 0.3125 0
-0.15625 0.34375 0
-0.125 0.34375 0
-0.15625 0.3125 0
-0.125 0.3125 0
-0.21875 0.28125 0
-0.1875 0.28125 0
-0.21875 0.25 0
-0.1875 0.25 0
-0.15625 0.28125 0
-0.125 0.28125 0
-0.15625 0.25 0
-0.125 0.25 0
-0.09375 0.34375 0
-0.0625 0.34375 0
-0.09375 0.3125 0
-0.0625 0.3125 0
-0.03125 0.34375 0
0 0.34375 0
-0.03125 0.3125 0
0 0.3125 0
-0.09375 0.28125 0
-0.0625 0.28125 0
-0.09375 0.25 0
-0.0625 0.25 0
-0.03125 0.28125 0
0 0.28125 0
-0.03125 0.25 0
0 0.25 0
-0.5 0.21875 0
-0.46875 0.21875 0
-0.4375 0.21875 0
-0.5 0.1875 0
-0.46875 0.1875 0
-0.4375 0.1875 0
-0.40625 0.21875 0
-0.375 0.21875 0
-0.40625 0.1875 0
-0.375 0.1875 0
-0.5 0.15625 0
-0.46875 0.15625 0
-0.4375 0.15625 0
-0.5 0.125 0
-0.46875 0.125 0
-0.4375 0.125 0
-0.40625 0.15625 0
-0.375 0.15625 0
-0.40625 0.125 0
-0.375 0.125 0
-0.34375 0.21875 0
-0.3125 0.21875 0
-0.34375 0.1875 0
-0.3125 0.1875 0
-0.28125 0.21875 0
-0.25 0.21875 0
-0.28125 0.1875 0
-0.25 0.1875 0
-0.34375 0.15625 0
-0.3125 0.15625 0
-0.34375 0.125 0
-0.3125 0.125 0
-0.28125 0.15625 0
-0.25 0.15625 0
-0.28125 0.125 0
-0.25 0.125 0
-0.5 0.09375 0
-0.46875 0.09375 0
-0.4375 0.09375 0
-0.5 0.0625 0
-0.46875 0.0625 0
-0.4375 0.0625 0
-0.40625 0.09375 0
-0.375 0.09375 0
-0.40625 0.0625 0
-0.375 0.0625 0
-0.5 0.03125 0
-0.46875 0.03125 0
-0.4375 0.03125 0
-0.5 0 0
-0.46875 0 0
-0.4375 0 0
-0.40625 0.03125 0
-0.375 0.03125 0
-0.40625 0 0
-0.375 0 0
-0.34375 0.09375 0
-0.3125 0.09375 0
-0.34375 0.0625 0
-0.3125 0.0625 0
-0.28125 0.09375 0
-0.25 0.09375 0
-0.28125 0.0625 0
-0.25 0.0625 0
-0.34375 0.03125 0
-0.3125 0.03125 0
-0.34375 0 0
-0.3125 0 0
-0.28125 0.03125 0
-0.25 0.03125 0
-0.28125 0 0
-0.25 0 0
-0.21875 0.21875 0
-0.1875 0.21875 0
-0.21875 0.1875 0
-0.1875 0.1875 0
-0.15625 0.21875 0
-0.125 0.21875 0
-0.15625 0.1875 0
-0.125 0.1875 0
-0.21875 0.15625 0
-0.1875 0.15625 0
-0.21875 0.125 0
-0.1875 0.125 0
-0.15625 0.15625 0
-0.125 0.15625 0
-0.15625 0.125 0
-0.125 0.125 0
-0.09375 0.21875 0
-0.0625 0.21875 0
-0.09375 0.1875 0
-0.0625 0.1875 0
-0.03125 0.21875 0
0 0.21875 0
-0.03125 0.1875 0
0 0.1875 0
-0.09375 0.15625 0
-0.0625 0.15625 0
-0.09375 0.125 0
-0.0625 0.125 0
-0.03125 0.15625 0
0 0.15625 0
-0.03125 0.125 0
0 0.125 0
-0.21875 0.09375 0
-0.1875 0.09375 0
-0.21875 0.0625 0
-0.1875 0.0625 0
-0.15625 0.09375 0
-0.125 0.09375 0
-0.15625 0.0625 0
-0.125 0.0625 0
-0.21875 0.03125 0
-0.1875 0.03125 0
-0.21875 0 0
-0.1875 0 0
-0.15625 0.03125 0
-0.125 0.03125 0
-0.15625 0 0
-0.125 0 0
-0.09375 0.09375 0
-0.0625 0.09375 0
-0.09375 0.0625 0
-0.0625 0.0625 0
-0.03125 0.09375 0
0 0.09375 0
-0.03125 0.0625 0
0 0.0625 0
-0.09375 0.03125 0
-0.0625 0.03125 0
-0.09375 0 0
-0.0625 0 0
-0.03125 0.03125 0
0 0.03125 0
-0.03125 0 0
0 0 0
0.03125 0.46875 0
0.03125 0.5 0
0.0625 0.46875 0
0.0625 0.5 0
0.03125 0.4375 0
0.0625 0.4375 0
0.09375 0.46875 0
0.09375 0.5 0
0.125 0.46875 0
0.125 0.5 0
0.09375 0.4375 0
0.125 0.4375 0
0.03125 0.40625 0
0.0625 0.40625 0
0.03125 0.375 0
0.0625 0.375 0
0.09375 0.40625 0
0.125 0.40625 0
0.09375 0.375 0
0.125 0.375 0
0.15625 0.46875 0
0.15625 0.5 0
0.1875 0.46875 0
0.1875 0.5 0
0.15625 0.4375 0
0.1875 0.4375 0
0.21875 0.46875 0
0.21875 0.5 0
0.25 0.46875 0
0.25 0.5 0
0.21875 0.4375 0
0.25 0.4375 0
0.15625 0.40625 0
0.1875 0.40625 0
0.15625 0.375 0
0.1875 0.375 0
0.21875 0.40625 0
0.25 0.40625 0
0.21875 0.375 0
0.25 0.375 0
0.03125 0.34375 0
0.0625 0.34375 0
0.03125 0.3125 0
0.0625 0.3125 0
0.09375 0.34375 0
0.125 0.34375 0
0.09375 0.3125 0
0.125 0.3125 0
0.03125 0.28125 0
0.0625 0.28125 0
0.03125 0.25 0
0.0625 0.25 0
0.09375 0.28125 0
0.125 0.28125 0
0.09375 0.25 0
0.125 0.25 0
0.15625 0.34375 0
0.1875 0.34375 0
0.15625 0.3125 0
0.1875 0.3125 0
0.21875 0.34375 0
0.25 0.34375 0
0.21875 0.3125 0
0.25 0.3125 0
0.15625 0.28125 0
0.1875 0.28125 0
0.15625 0.25 0
0.1875 0.25 0
0.21875 0.28125 0
0.25 0.28125 0
0.21875 0.25 0
0.25 0.25 0
0.28125 0.46875 0
0.28125 0.5 0
0.3125 0.46875 0
0.3125 0.5 0
0.28125 0.4375 0
0.3125 0.4375 0
0.34375 0.46875 0
0.34375 0.5 0
0.375 0.46875 0
0.375 0.5 0
0.34375 0.4375 0
0.375 0.4375 0
0.28125 0.40625 0
0.3125 0.40625 0
0.28125 0.375 0
0.3125 0.375 0
0.34375 0.40625 0
0.375 0.40625 0
0.34375 0.375 0
0.375 0.375 0
0.40625 0.46875 0
0.40625 0.5 0
0.4375 0.46875 0
0.4375 0.5 0
0.40625 0.4375 0
0.4375 0.4375 0
0.46875 0.46875 0
0.46875 0.5 0
0.5 0.46875 0
0.5 0.5 0
0.46875 0.4375 0
0.5 0.4375 0
0.40625 0.40625 0
0.4375 0.40625 0
0.40625 0.375 0
0.4375 0.375 0
0.46875 0.40625 0
0.5 0.40625 0
0.46875 0.375 0
0.5 0.375 0
0.28125 0.34375 0
0.3125 0.34375 0
0.28125 0.3125 0
0.3125 0.3125 0
0.34375 0.34375 0
0.375 0.34375 0
0.34375 0.3125 0
0.375 0.3125 0
0.28125 0.28125 0
0.3125 0.28125 0
0.28125 0.25 0
0.3125 0.25 0
0.34375 0.28125 0
0.375 0.28125 0
0.34375 0.25 0
0.375 0.25 0
0.40625 0.34375 0
0.4375 0.34375 0
0.40625 0.3125 0
0.4375 0.3125 0
0.46875 0.34375 0
0.5 0.34375 0
0.46875 0.3125 0
0.5 0.3125 0
0.40625 0.28125 0
0.4375 0.28125 0
0.40625 0.25 0
0.4375 0.25 0
0.46875 0.28125 0
0.5 0.28125 0
0.46875 0.25 0
0.5 0.25 0
0.03125 0.21875 0
0.0625 0.21875 0
0.03125 0.1875 0
0.0625 0.1875 0
0.09375 0.21875 0
0.125 0.21875 0
0.09375 0.1875 0
0.125 0.1875 0
0.03125 0.15625 0
0.0625 0.15625 0
0.03125 0.125 0
0.0625 0.125 0
0.09375 0.15625 0
0.125 0.15625 0
0.09375 0.125 0
0.125 0.125 0
0.15625 0.21875 0
0.1875 0.21875 0
0.15625 0.1875 0
0.1875 0.1875 0
0.21875 0.21875 0
0.25 0.21875 0
0.21875 0.1875 0
0.25 0.1875 0
0.15625 0.15625 0
0.1875 0.15625 0
0.15625 0.125 0
0.1875 0.125 0
0.21875 0.15625 0
0.25 0.15625 0
0.21875 0.125 0
0.25 0.125 0
0.03125 0.09375 0
0.0625 0.09375 0
0.03125 0.0625 0
0.0625 0.0625 0
0.09375 0.09375 0
0.125 0.09375 0
0.09375 0.0625 0
0.125 0.0625 0
0.03125 0.03125 0
0.0625 0.03125 0
0.03125 0 0
0.0625 0 0
0.09375 0.03125 0
0.125 0.03125 0
0.09375 0 0
0.125 0 0
0.15625 0.09375 0
0.1875 0.09375 0
0.15625 0.0625 0
0.1875 0.0625 0
0.21875 0.09375 0
0.25 0.09375 0
0.21875 0.0625 0
0.25 0.0625 0
0.15625 0.03125 0
0.1875 0.03125 0
0.15625 0 0
0.1875 0 0
0.21875 0.03125 0
0.25 0.03125 0
0.21875 0 0
0.25 0 0
0.28125 0.21875 0
0.3125 0.21875 0
0.28125 0.1875 0
0.3125 0.1875 0
0.34375 0.21875 0
0.375 0.21875 0
0.34375 0.1875 0
0.375 0.1875 0
0.28125 0.15625 0
0.3125 0.15625 0
0.28125 0.125 0
0.3125 0.125 0
0.34375 0.15625 0
0.375 0.15625 0
0.34375 0.125 0
0.375 0.125 0
0.40625 0.21875 0
0.4375 0.21875 0
0.40625 0.1875 0
0.4375 0.1875 0
0.46875 0.21875 0
0.5 0.21875 0
0.46875 0.1875 0
0.5 0.1875 0
0.40625 0.15625 0
0.4375 0.15625 0
0.40625 0.125 0
0.4375 0.125 0
0.46875 0.15625 0
0.5 0.15625 0
0.46875 0.125 0
0.5 0.125 0
0.28125 0.09375 0
0.3125 0.09375 0
0.28125 0.0625 0
0.3125 0.0625 0
0.34375 0.09375 0
0.375 0.09375 0
0.34375 0.0625 0
0.375 0.0625 0
0.28125 0.03125 0
0.3125 0.03125 0
0.28125 0 0
0.3125 0 0
0.34375 0.03125 0
0.375 0.03125 0
0.34375 0 0
0.375 0 0
0.40625 0.09375 0
0.4375 0.09375 0
0.40625 0.0625 0
0.4375 0.0625 0
0.46875 0.09375 0
0.5 0.09375 0
0.46875 0.0625 0
0.5 0.0625 0
0.40625 0.03125 0
0.4375 0.03125 0
0.40625 0 0
0.4375 0 0
0.46875 0.03125 0
0.5 0.03125 0
0.46875 0 0
0.5 0 0
-0.5 -0.03125 0
-0.46875 -0.03125 0
-0.4375 -0.03125 0
-0.5 -0.0625 0
-0.46875 -0.0625 0
-0.4375 -0.0625 0
-0.40625 -0.03125 0
-0.375 -0.03125 0
-0.40625 -0.0625 0
-0.375 -0.0625 0
-0.5 -0.09375 0
-0.46875 -0.09375 0
-0.4375 -0.09375 0
-0.5 -0.125 0
-0.46875 -0.125 0
-0.4375 -0.125 0
-0.40625 -0.09375 0
-0.375 -0.09375 0
-0.40625 -0.125 0
-0.375 -0.125 0
-0.34375 -0.03125 0
-0.3125 -0.03125 0
-0.34375 -0.0625 0
-0.3125 -0.0625 0
-0.28125 -0.03125 0
-0.25 -0.03125 0
-0.28125 -0.0625 0
-0.25 -0.0625 0
-0.34375 -0.09375 0
-0.3125 -0.09375 0
-0.34375 -0.125 0
-0.3125 -0.125 0
-0.28125 -0.09375 0
-0.25 -0.09375 0
-0.28125 -0.125 0
-0.25 -0.125 0
-0.5 -0.15625 0
-0.46875 -0.15625 0
-0.4375 -0.15625 0
-0.5 -0.1875 0
-0.46875 -0.1875 0
-0.4375 -0.1875 0
-0.40625 -0.15625 0
-0.375 -0.15625 0
[...]
POINT_DATA 1089
SCALARS T float
LOOKUP_TABLE default
0
0
0
0
0
0
0
0
0
0
0
0
0
0
0
0
0
0
0
0
0
0
0
0
0
0
0
0
0
0
0
0
0
0
0
0
0
0
0
0
0
0
0
0
0
0
0
0
0
0
0
0
0
0
0
0
0
0
0
0
0
0
0
0
0
0
0
0
0
0
0
0
0
0
0
0
0
0
0
0
0
0
0
0
0
0
0
0
0
0
0
0
0
0
0
0
0
0
0
0
0
0
0
0
0
0
0
0
0
0
0
0
0
0
0
0
0
0
0
0
0
0
0
0
0
0
0
0
0
0
0
0
0
0
0
0
0
0
0
0
0
0
0
0
0
0
0
0
0
0
0
0
0
0
0
0
0
0
0
0
0
0
0
0
0
0
0
0
0
0
0
0
0
0
0
0
0
0
0
0
0
0
0
0
0
0
0
0
0
0
0
0
0
0
0
0
0
0
0
0
0
0
0
0
0
0
0
0
0
0
0
0
0
0
0
0
0
0
0
0
0
0
0
0
0.00338351
0
0
0
0
0
0
0
0
0
0
0
0
0
0
3.30872e-06
0.0462235
0
0
0
0
0
0
0
0
0
0
0.152727
0.224009
0
0
0.198263
0.0932507
0
0.0231591
0.014135
0.247685
0.202198
0.475259
0.662585
0.929035
0.151161
0.611552
0.370848
0.867464
0.960391
1
1
1
0.652727
0.724009
1
1
0.698263
0.572355
1
0.979104
1
1
1
1
1
1
1
1
0
0
0
0
0
0
0
0
0
0
0
0
0
0
0
0
0
0
0
0
0
0
0
0
0
0
0
0
0
0
0
0
0
0
0
0
0
0
0.00418436
0.0889916
0
0
0
0
0
0
0
0
0
0
0
0
0
0
0
0
0
0.000537645
0
0.0500383
0.169415
0.503685
0.464732
0.914693
0
0.125253
0
0.094243
0.625253
1
0.583019
0.988777
0
0
0
0
0
0
0
0
0
0
0
0
0
0
0.217413
0.21944
0
0
0.0910003
0.00416639
0
0
0
0
0
0
0
0
0
0
0
0
0
0
0
0
0
0
0
0
0.717413
0.71944
1
1
0.507378
0.172234
0.916377
0.468283
1
1
1
1
1
0.624837
0.987423
0.579079
0.00169028
0
0.0519054
0
0
0
0
0
0.124836
0
0.0916552
0
0
0
0
0
0
0
0
0
0
0
0
0
0
0
0.01249
0
0
0
0
0
0
0.0184902
0
0
0.330857
0.785675
0.0735902
0.297968
0
0
0
0
0
0.00107024
0
0
0.329194
0.0876003
0.815322
0.428269
0
0
0.09205
0
0.998618
0.825885
1
0.985217
0.345959
0.0186921
0.604921
0.119704
0
0
0
0
0
0
0
0
0
0
0
0
0
0
0
0
0.973308
0.970252
0.494101
0.494193
0.78261
0.329392
0.299406
0.0749348
0.0207926
0.0239411
0
0
0.00421874
0
0
0
0.0170337
0
0
0
0
0
0
0
0
0
0
0
0
0
0
0
0
0
0
0
0
0
0
0
0.00435286
0.0760357
0.154634
0.476317
0.145839
0.0809372
0.645839
0.497628
0
0
0
0
0
0
0
0
0.00678147
0
0.174093
0.000620603
0
0
0
0
0
0
0
0
0
0
0
0
0
0
0
0
0
0
0
0
0
0
0
0
0
0
0
0
0
0.034403
0
0.066188
0
0
0
0
0
0.0411734
0
0.00600489
0
0
0
0
0
0
0
0
0
0
0
0
0
0
0
0
0
0
0
0
0
0
0
0
0
0
0
0
0
0
0
0
0
0
0
0
0.514841
0.980438
0.566188
1
1
1
1
1
0.531902
0.990728
0.407377
0.901372
1
1
1
1
1
1
1
1
1
1
1
1
1
1
1
1
1
1
1
1
0.19103
0.674726
0.030386
0.315162
0.983696
1
0.756553
0.971777
0
0.0510796
0
0
0.281954
0.577686
0.00909778
0.105909
1
1
1
1
1
1
1
0.994896
0.752004
0.818665
0.252004
0.318665
0.786543
0.6528
0.286543
0.157904
0
0
0
0
0
0
0
0
0
0
0
0
0
0
0
0
0
0
0
0
0
0
0
0
0
0
0
0
0
0
0
0
0
0
0
0
0
0
0
0
0
0
0
0
0
0
0
0
0
0
0
0
0
0
0
0
0
0
0
0
0
0
0
0
0
0
0
0
0
0
0
0
0
0
0
0
0
0
0
0
0
0
0
0
0
0
0
0
0
0
0
0
0
0
0
0
0
0
0
0
0
0
0
0
0
0
0
0
0
0
0
0
0
0
0
0
0
0
0
0
0
0
0
0
0
0
0
0
0
0
0
0
0
0
0
0
1
1
1
1
0.748839
0.248839
0.797315
0.297315
1
1
1
0.991916
0.756365
0.256365
0.622783
0.130866
0
0
0
0
0
0
0
0
0
0
0
0
0
0
0
0
1
0.855314
0.864949
0.484031
0.379304
0.0239895
0.113978
0
0.399783
0.120633
0.0348336
0
0.000580176
0
0
0
0
0
0
0
0
0
0
0
0
0
0
0
0
0
0
0
0.37789
0.87789
0.388489
0.888489
1
0.914585
1
0.931824
0.171316
0.519613
0.0104354
0.108732
0.703758
0.551746
0.203758
0.117817
0.41722
0.00263506
0.435773
0.0039488
0
0
0
0
0.19822
0.00193434
0.0123556
0
0
0
0
0
0
0
0
0
0
0
0
0
0
0
0
0
0
0
0
0
0
0
0
0
0
0
0
0
0
0
0
0
0
0
0
0
0
0
0
0
0
0
0
0
0
0
0
0
0
0
0
0
0
0
0
0
0
0
0
0
0
0
0
0
0
0
0
0
0
0
0
0
0
0
0
0
0
0
0
0
0
0
0
0
0
0
0
0
0
0
0
0
0
0
0
0
0
0
0
0
0
0
0
0
0
0
0
0
0
0
0
0
0
0
0
0
0
0
0
0
0
0
0
0
0
0
0
0
0
0
0
0
0
0
0
0
0
0
0
0
0
0
0
0
0
0
0
0
0
0
0
0
0
0
0
0
0
0
0
0
0
0
0
0

SCALARS P float
LOOKUP_TABLE default
-0.0112813
-0.0112975
-0.0113298
-0.0113443
-0.0113218
-0.0113656
-0.0112294
-0.011248
-0.0112759
-0.0113511
-0.0113919
-0.0113849
-0.011423
-0.0113088
-0.0113458
-0.0111775
-0.0111986
-0.01123
-0.0111232
-0.0111478
-0.0111837
-0.0112665
-0.0113071
-0.0112247
-0.0112697
-0.0114218
-0.0114579
-0.0114607
-0.0114956
-0.0113854
-0.0114264
-0.0115002
-0.0115351
-0.0115388
-0.0115745
-0.0114673
-0.0115065
-0.0113501
-0.011394
-0.0113168
-0.0113645
-0.0114374
-0.0114786
-0.0114114
-0.0114559
-0.0110643
-0.0110957
-0.0111378
-0.0110184
-0.0110502
-0.0110955
-0.011184
-0.011234
-0.0111461
-0.011201
-0.0109568
-0.0109971
-0.0110503
-0.0108784
-0.0109395
-0.0110055
-0.0111079
-0.0111689
-0.0110716
-0.0111389
-0.0112858
-0.0113381
-0.0112578
-0.0113153
-0.0113897
-0.0114386
-0.0113724
-0.0114272
-0.0112315
-0.0112949
-0.0112071
-0.0112766
-0.0113588
-0.0114209
-0.0113481
-0.0114195
-0.0115745
-0.011612
-0.0116055
-0.0116452
-0.0115423
-0.011573
-0.0116299
-0.0116716
-0.0116458
-0.0116892
-0.0115969
-0.0116126
-0.011516
-0.0115479
-0.0114963
-0.0115307
-0.0115727
-0.011589
-0.0115577
-0.0115756
-0.0116523
-0.0116964
-0.0116487
-0.0116925
-0.011619
-0.0116158
-0.0116352
-0.0116778
-0.0116127
-0.0116535
-0.011603
-0.0115813
-0.011596
-0.0115934
-0.0115838
-0.0115821
-0.0115811
-0.0115598
-0.0115702
-0.0115491
-0.0114836
-0.011522
-0.0114782
-0.0115223
-0.0115525
-0.0115729
-0.0115581
-0.011582
-0.0114803
-0.0115325
-0.0114902
-0.0115538
-0.0115759
-0.0116044
-0.0116081
-0.0116422
-0.011583
-0.0115825
-0.0115948
-0.011596
-0.0115711
-0.0115502
-0.011585
-0.0115642
-0.0116207
-0.0116239
-0.0116634
-0.011669
-0.0116124
-0.0115904
-0.011656
-0.0116316
-0.0108205
-0.010893
-0.0109672
-0.0107734
-0.0108561
-0.0109362
-0.0110391
-0.0111106
-0.011011
-0.0110838
-0.0107415
-0.0108318
-0.0109142
-0.0107368
-0.0108272
-0.0109051
-0.0109876
-0.0110573
-0.0109702
-0.01103
-0.0111833
-0.0112582
-0.0111584
-0.0112371
-0.0113383
-0.0114209
-0.0113256
-0.0114216
-0.0111297
-0.0112086
-0.0110935
-0.0111661
-0.0113049
-0.0114178
-0.0112664
-0.0113952
-0.0107619
-0.0108453
-0.0109111
-0.0108358
-0.0108949
-0.0109364
-0.0109596
-0.0110008
-0.0109576
-0.0109699
-0.0109645
-0.0109811
-0.0109841
-0.0111697
-0.011107
-0.0110523
-0.0109662
-0.0109377
-0.0109866
-0.0109105
-0.0110455
-0.0111016
-0.0109835
-0.0110068
-0.0111984
-0.011342
-0.0110792
-0.0112117
-0.0109024
-0.010866
-0.0108144
-0.0106982
-0.01086
-0.010898
-0.0105579
-0.0102208
-0.0115072
-0.0115878
-0.0115295
-0.0116356
-0.0116584
-0.0116988
-0.0117301
-0.0117778
-0.0115576
-0.0117064
-0.0115776
-0.0118026
-0.0118369
-0.0118881
-0.0119887
-0.00914178
-0.0117255
-0.0117335
-0.0118156
-0.0118281
-0.0117164
-0.0116871
-0.011803
-0.011771
-0.0119381
-0.0119554
-0.00260218
0.0016937
-0.0119221
-0.0118977
6.55924e-05
-0.00642231
-0.0116062
-0.0104977
-0.0106722
0.00313645
0.000354353
0.0170167
0.0282766
0.044399
-0.00226262
0.0249086
0.0108314
0.0395602
0.0458299
0.0482562
0.0476591
0.0479142
0.027804
0.0321162
0.0486423
0.0486731
0.0304707
0.0226715
0.0486644
0.047351
0.0483447
0.048399
0.0480816
0.0481537
0.0483783
0.0483215
0.0481298
0.0480216
-0.0115822
-0.0116212
-0.0115457
-0.0115834
-0.0115513
-0.0115145
-0.0115043
-0.0115419
-0.0114597
-0.0114993
-0.0114712
-0.0114218
-0.01153
-0.0114928
-0.0115191
-0.0114809
-0.0114473
-0.0113935
-0.0114329
-0.0113734
-0.0114132
-0.0114572
-0.0113669
-0.0114172
-0.0113673
-0.0113088
-0.0113264
-0.0113838
-0.0112949
-0.0113581
-0.0112521
-0.0112095
-0.0113296
-0.011253
-0.0112949
-0.0111888
-0.0111621
-0.011083
-0.010528
-0.000577388
-0.0115202
-0.0114813
-0.0115342
-0.0114966
-0.011434
-0.011374
-0.0114557
-0.0114107
-0.0115575
-0.0115171
-0.0115923
-0.0115432
-0.0114778
-0.0114477
-0.0114971
-0.0114745
-0.0112957
-0.0110832
-0.0113735
-0.00494983
0.00921365
0.0485882
0.0444929
0.097427
-0.0114651
0.00432222
-0.0115321
0.000457061
0.0639248
0.107642
0.0590989
0.106696
-0.0112939
-0.0113481
-0.0113123
-0.0113496
-0.0112308
-0.0112923
-0.0113056
-0.0113435
-0.0112857
-0.0113302
-0.0112832
-0.0112423
-0.0111505
-0.0112978
0.0142147
0.0140741
-0.0112733
-0.0111951
-0.000935986
-0.0107588
-0.0112777
-0.0113232
-0.0112724
-0.0113201
-0.0112312
-0.0112207
-0.0112719
-0.0113211
-0.0112813
-0.0113298
-0.0112188
-0.0112294
-0.0111838
-0.0111674
-0.0111377
-0.0111131
-0.0111652
-0.0111775
-0.01111
-0.0111232
0.0734473
0.0735577
0.107474
0.10773
0.0480816
0.00867534
0.0973371
0.0435977
0.10761
0.107732
0.107637
0.107628
0.107832
0.0624849
0.106127
0.0572825
-0.0108931
-0.0110328
-0.00533804
-0.0110277
-0.0110447
-0.0110643
-0.0110118
-0.0110184
0.00307173
-0.010967
-0.000379442
-0.0107848
-0.0109472
-0.0109568
-0.0108323
-0.0108784
-0.0116336
-0.0115609
-0.0116991
-0.0115931
-0.0114763
-0.0114031
-0.0114566
-0.0113182
-0.0118113
-0.0116741
-0.0112638
-0.0118077
-0.0114935
-0.0113185
-0.0115602
-0.0113342
-0.0113608
-0.00879143
-0.0111528
-0.0109767
0.029218
0.0831906
-0.00156954
0.0254233
-0.0111296
-0.0109534
-0.0111275
-0.0109456
-0.0106333
-0.0101662
-0.0107048
-0.0104782
0.00770077
-0.00681212
0.0371269
0.0133881
-0.0116866
-0.0113874
-0.00649913
-0.011416
0.0480962
0.0370776
0.047821
0.0464642
0.00834238
-0.0103789
0.0234596
-0.00464504
-0.0111737
-0.0110052
-0.0112098
-0.0110773
-0.0108133
-0.0105923
-0.0109453
-0.0107757
-0.0111769
-0.0111443
-0.0110501
-0.0111883
-0.0111331
-0.0111149
-0.0113786
-0.0116581
0.1045
0.103987
0.0483527
0.0482259
0.0818866
0.0281265
0.0250759
-0.00154585
-0.00745139
-0.00701978
-0.0102721
-0.0100922
-0.00962983
-0.0102212
-0.0100737
-0.01013
-0.008732
-0.0106761
-0.0104753
-0.0105879
-0.0107523
-0.0108205
-0.010683
-0.0107734
-0.0103651
-0.0105141
-0.0102974
-0.0104807
-0.0106316
-0.0107415
-0.010615
-0.0107368
-0.0103745
-0.010112
-0.0105947
-0.010195
-0.00996016
-0.0100007
-0.00981488
-0.00984493
-0.0103069
0.00283894
0.0169846
0.075677
0.0154674
0.00400426
0.105592
0.0782698
-0.0102335
-0.0104771
-0.0102294
-0.0105636
-0.0106308
-0.0107619
-0.0107153
-0.0108358
-0.00922844
-0.0107556
0.0198434
-0.0112351
-0.0108791
-0.0109645
-0.0112253
-0.0111697
-0.0113854
-0.0112437
-0.0111315
-0.0115046
-0.0113371
-0.0111984
-0.0110219
-0.0109026
-0.011066
-0.0109221
-0.0115643
-0.0114037
-0.0112626
-0.011569
-0.0114414
-0.0113186
-0.0111275
-0.0109833
-0.0111994
-0.0110748
-0.0107502
-0.0105564
-0.0107375
-0.0104997
-0.0102725
-0.00803808
-0.0101329
-0.00605832
-0.0108037
-0.0105804
-0.0109296
-0.0107619
-0.0102453
-0.00756725
-0.0105405
-0.00994609
-0.0115567
-0.011464
-0.0113686
-0.0115571
-0.0114891
-0.0114177
-0.0112757
-0.0111828
-0.0113508
-0.0112897
-0.0115496
-0.0115044
-0.011456
-0.0115466
-0.0115173
-0.0114867
-0.0114131
-0.0113792
-0.0114627
-0.0114497
-0.0110875
-0.0109916
-0.01124
-0.011207
-0.010909
-0.0108517
-0.0112248
-0.0113028
-0.0113624
-0.0113696
-0.0114553
-0.0114861
-0.0114299
-0.0115584
-0.0115617
-0.0116916
0.0190905
0.0456071
0.021928
0.0464483
0.0472855
0.0476567
0.0471033
0.0475401
0.020027
0.0460119
0.0129717
0.0412846
0.0471463
0.0475792
0.0473977
0.0477832
0.0478767
0.0479647
0.0477797
0.0478699
0.0479331
0.0477973
0.0478216
0.0476574
0.0478101
0.047883
0.0479742
0.0480125
0.0478066
0.0476037
0.0478964
0.0476537
0.000233778
0.0285742
-0.00967782
0.00727504
0.0469554
0.0481371
0.0340452
0.0470939
-0.0118474
-0.00898133
-0.0119143
-0.0122421
0.00517307
0.0234409
-0.0119333
-0.00580573
0.0482617
0.0482582
0.0486678
0.0485977
0.0480887
0.0478057
0.0483655
0.0477678
0.0342466
0.0382708
0.0034288
0.00752082
0.0360432
0.0275641
0.005514
-0.00241208
-0.0115381
-0.0115214
-0.0115049
-0.0115262
-0.0115186
-0.0115124
-0.0114954
-0.0114968
-0.0115134
-0.0115246
-0.0115078
-0.0115069
-0.0115085
-0.0114837
-0.0114877
-0.0114949
-0.0115168
-0.0115343
-0.0115085
-0.01153
-0.0115155
-0.0115565
-0.0115509
-0.0115956
-0.0116318
-0.0117461
-0.0116655
-0.011762
-0.0115642
-0.0116084
-0.0115615
-0.0116038
-0.0116704
-0.0117497
-0.0116583
-0.0117238
-0.0114532
-0.0114608
-0.0114723
-0.011417
-0.0114273
-0.0114424
-0.0114898
-0.0115141
-0.011463
-0.0114895
-0.0113757
-0.0113882
-0.0114064
-0.0113298
-0.0113443
-0.0113656
-0.0114298
-0.0114585
-0.0113919
-0.011423
-0.0115463
-0.0115864
-0.0115222
-0.0115606
-0.0116347
-0.0116895
-0.0116043
-0.0116515
-0.011492
-0.0115296
-0.0114579
-0.0114956
-0.0115704
-0.0116126
-0.0115351
-0.0115745
-0.0119128
-0.0121282
-0.0118875
-0.0120349
-0.0123623
-0.0125169
-0.0121816
-0.0122818
-0.0118451
-0.0119493
-0.0117975
-0.0118736
-0.012047
-0.0121146
-0.0119415
-0.0119888
-0.0125883
-0.0125698
-0.012331
-0.0123165
-0.0124199
-0.0122357
-0.0122216
-0.012098
-0.0121458
-0.0121349
-0.0120105
-0.0120022
-0.012078
-0.0119971
-0.0119636
-0.0119061
-0.011748
-0.0118055
-0.0116996
-0.011745
-0.0118551
-0.0118893
-0.0117829
-0.0118089
-0.011654
-0.0116918
-0.011612
-0.0116452
-0.0117224
-0.0117431
-0.0116716
-0.0116892
-0.0119045
-0.0118982
-0.0118202
-0.0118152
-0.0118711
-0.0118291
-0.0117945
-0.0117614
-0.0117518
-0.0117475
-0.0116964
-0.0116925
-0.0117306
-0.0117032
-0.0116778
-0.0116535
0.0475429
0.0471676
0.0473538
0.0469386
0.0316363
0.00278051
0.0342917
0.00564929
0.0472523
0.0467755
0.0472773
0.046227
0.0318986
0.00340724
0.024365
-0.00365818
-0.0109025
-0.011168
-0.0107349
-0.011013
-0.0114989
-0.0119439
-0.0112409
-0.0114476
-0.0106306
-0.0108876
-0.010769
-0.0109675
-0.0110012
-0.0110155
-0.0110736
-0.011111
0.047416
0.0382894
0.0396401
0.0167209
0.0104682
-0.00969977
-0.00486152
-0.0111989
0.012019
-0.00464497
-0.0099155
-0.0118763
-0.0115255
-0.0114156
-0.0116683
-0.0115412
-0.0110067
-0.0111089
-0.0112088
-0.0112427
-0.0111771
-0.0112057
-0.0112797
-0.0112977
-0.0113741
-0.0113676
-0.011482
-0.0114556
-0.0113802
-0.0113903
-0.0114499
-0.0114497
0.0582689
0.149726
0.0606773
0.151464
0.170779
0.154565
0.170739
0.158534
0.0210753
0.0844677
-0.008816
0.00952397
0.117424
0.089298
0.0265185
0.0100421
0.0633489
-0.0116807
0.0671475
-0.0116417
-0.0116144
-0.0113854
-0.0117762
-0.0115046
0.0239812
-0.0117486
-0.00965179
-0.0118643
-0.0117924
-0.0115643
-0.0117237
-0.011569
-0.0111753
-0.0110814
-0.0113024
-0.0112758
-0.0114005
-0.0117601
-0.0114575
-0.0116646
-0.0114032
-0.0114048
-0.0114572
-0.0114644
-0.0114942
-0.0115973
-0.0115137
-0.0115706
-0.0117491
-0.0117338
-0.0116739
-0.0116733
-0.0116553
-0.0115567
-0.0116244
-0.0115571
-0.0116124
-0.0116172
-0.0115838
-0.0115875
-0.0115913
-0.0115496
-0.0115727
-0.0115466
-0.0120465
-0.0118619
-0.0119675
-0.0118401
-0.0117105
-0.0116087
-0.0117279
-0.0116433
-0.0119034
-0.0118078
-0.0118374
-0.0117655
-0.0117203
-0.0116496
-0.0116965
-0.0116369
-0.011549
-0.0115146
-0.0115855
-0.0115472
-0.0114986
-0.011491
-0.0115243
-0.0115109
-0.0115964
-0.0115578
-0.0115885
-0.0115508
-0.0115316
-0.0115143
-0.0115231
-0.0115034
-0.0117766
-0.0117198
-0.0117193
-0.0116723
-0.0116631
-0.0116116
-0.0116239
-0.0115778
-0.0116675
-0.0116265
-0.0116212
-0.0115834
-0.0115828
-0.0115397
-0.0115419
-0.0114993
-0.0115672
-0.0115307
-0.0115362
-0.0115005
-0.0115024
-0.0114812
-0.0114716
-0.0114491
-0.0114991
-0.0114623
-0.0114572
-0.0114172
-0.0114318
-0.0114079
-0.0113838
-0.0113581
-0.0114918
-0.0114962
-0.0115055
-0.0115056
-0.0115203
-0.0115488
-0.0115163
-0.0115299
-0.0115046
-0.0115003
-0.0114907
-0.0114835
-0.0115026
-0.0115074
-0.011481
-0.0114807
-0.0115579
-0.0115603
-0.0115352
-0.0115366
-0.0115527
-0.0115381
-0.0115332
-0.0115262
-0.0115095
-0.0115102
-0.0114805
-0.0114808
-0.0115095
-0.0115078
-0.0114817
-0.0114837
-0.0114669
-0.0114578
-0.0114343
-0.0114252
-0.0114524
-0.0114488
-0.0114185
-0.0114125
-0.0113941
-0.0113875
-0.0113481
-0.0113496
-0.0113807
-0.0113724
-0.0113435
-0.0113302
-0.0114469
-0.0114468
-0.011409
-0.0114085
-0.0114486
-0.0114532
-0.0114106
-0.011417
-0.0113675
-0.0113662
-0.0113232
-0.0113201
-0.011368
-0.0113757
-0.0113211
-0.0113298

SCALARS U float
LOOKUP_TABLE default
0.0209317
0.0211566
0.0206228
0.0208651
0.0213765
0.0211113
0.0212239
0.0214212
0.0216127
0.0215927
0.0213579
0.0218027
0.0216015
0.0217996
0.0219793
0.0214575
0.0216295
0.0217997
0.0216026
0.0217617
0.0219226
0.0219653
0.0221231
0.0220771
0.0222228
0.0219971
0.0218326
0.0221619
0.0220375
0.0221426
0.0222757
0.0222788
0.0221976
0.0223261
0.0222895
0.0223604
0.0223762
0.0222642
0.0223757
0.0223515
0.0224527
0.0224403
0.0224376
0.0225099
0.0225029
0.0215837
0.0217844
0.0219646
0.0214316
0.0217147
0.0219314
0.0221237
0.0222681
0.0221032
0.0222508
0.0213468
0.0216519
0.0218712
0.0213067
0.0215809
0.0217725
0.0220357
0.0221752
0.0219103
0.0220301
0.0223937
0.022495
0.0223788
0.022489
0.0225577
0.022562
0.0225704
0.0226034
0.022302
0.0224251
0.0221515
0.0222914
0.0225368
0.0226187
0.022447
0.0226055
0.0222813
0.0222876
0.0221244
0.022167
0.0223019
0.0221192
0.0218436
0.0219107
0.0214395
0.0215144
0.0218186
0.0214023
0.0223463
0.022148
0.0224089
0.0222065
0.0218322
0.0214012
0.021882
0.0214354
0.0209313
0.0209975
0.0203561
0.0204029
0.02089
0.0203158
0.0197615
0.019787
0.0191973
0.019209
0.0197247
0.0191633
0.0208752
0.0202889
0.020888
0.0202775
0.0196897
0.0191269
0.0196595
0.0190937
0.0224816
0.0222899
0.0225571
0.0223961
0.0219658
0.021504
0.0220855
0.0216095
0.0226337
0.0225337
0.0227262
0.0227434
0.0222575
0.0217701
0.0225453
0.0220556
0.020927
0.0202774
0.0209914
0.0202783
0.0196259
0.0190514
0.0195644
0.0189585
0.021092
0.0202701
0.021282
0.0202604
0.0194344
0.0187432
0.0191875
0.018314
0.0213383
0.0215223
0.0216448
0.0213593
0.0214199
0.0214526
0.0217291
0.0218124
0.0214697
0.0215075
0.0211593
0.0211648
0.021139
0.0207825
0.0207739
0.0207115
0.0211009
0.0210967
0.0206267
0.0205801
0.0219205
0.0220799
0.0215983
0.0217854
0.0222981
0.0225827
0.0221037
0.0226164
0.0211716
0.0214043
0.0206354
0.0209255
0.021889
0.0227988
0.0216286
0.0230805
0.0203157
0.0202814
0.0201841
0.0197978
0.0197235
0.0195895
0.0200518
0.0199526
0.0194021
0.0192246
0.0192211
0.0191221
0.0189564
0.0184344
0.018467
0.0183276
0.0187073
0.0184144
0.0180413
0.0176276
0.0199637
0.02027
0.0191236
0.0192847
0.0211168
0.0230057
0.0199145
0.0215345
0.0181008
0.017848
0.0170608
0.0162474
0.017699
0.0178645
0.0150429
0.0131488
0.0229027
0.023164
0.0233272
0.0240711
0.0231387
0.0226598
0.0243582
0.0238623
0.0241937
0.0256964
0.0253412
0.0274473
0.026298
0.025532
0.027775
0.026054
0.0217071
0.0202917
0.02256
0.0204306
0.0187449
0.0175034
0.0180471
0.0161559
0.0236277
0.0206009
0.023428
0.0203289
0.0172206
0.0144901
0.0170083
0.0139068
0.0257286
0.0272406
0.0233582
0.0225986
0.0261165
0.0232763
0.0196846
0.0174737
0.0173252
0.0146155
0.0102479
0.00776142
0.0122189
0.0126991
0.00821517
0.0112839
0.0207617
0.0194278
0.0171243
0.0186373
0.0183241
0.0163634
0.0206279
0.0213547
0.0151211
0.0185462
0.0150242
0.0188693
0.0222497
0.0253263
0.0227699
0.0266688
0.0187061
0.0187177
0.0183146
0.0183414
0.0186716
0.0182742
0.0180366
0.0180897
0.0178727
0.0179573
0.0179838
0.0177976
0.0186427
0.0182594
0.0186286
0.0182897
0.0179863
0.0178023
0.0180833
0.017965
0.0178239
0.0179369
0.017877
0.018015
0.0177082
0.0176859
0.018008
0.0181673
0.0182538
0.0183873
0.0177176
0.0179544
0.0176657
0.0174923
0.0178511
0.0175682
0.0172778
0.0174828
0.0171701
0.0174197
0.0186168
0.0183644
0.0185478
0.0183984
0.0183097
0.0184196
0.0185444
0.0189966
0.0183128
0.0182215
0.0177961
0.0177088
0.01851
0.0192053
0.0180595
0.0188209
0.0186008
0.0186865
0.0196703
0.0205277
0.0187403
0.0190935
0.0213361
0.0215168
0.020198
0.0216568
0.0198492
0.0215011
0.0228947
0.0226556
0.0228515
0.0224812
0.0186573
0.0186768
0.0191634
0.0190155
0.0185702
0.019413
0.0195769
0.0193191
0.0198518
0.0195702
0.0199952
0.0202342
0.0185145
0.0199095
0.0186268
0.020112
0.0207206
0.0208271
0.0210314
0.0211623
0.0201388
0.0198385
0.0204316
0.0201112
0.0204805
0.0207619
0.0206906
0.0203683
0.0209317
0.0206158
0.0210036
0.0212239
0.020895
0.0210826
0.0211655
0.0213061
0.0212696
0.0214575
0.0214445
0.0216026
0.0195168
0.0198647
0.0208333
0.0197726
0.0202889
0.0205531
0.0191896
0.0193752
0.0214463
0.0199691
0.0213832
0.020065
0.0191303
0.0195108
0.019431
0.0200464
0.0208025
0.0211292
0.0199911
0.0206335
0.0213714
0.0215837
0.0210915
0.0214316
0.0200783
0.0205169
0.0204093
0.0205726
0.0209757
0.0213468
0.0209654
0.0213067
0.0167996
0.0166768
0.0151189
0.0149875
0.017035
0.0176507
0.0155502
0.016284
0.0128877
0.012652
0.0114062
0.0104325
0.0136909
0.015159
0.0116911
0.0140734
0.0182637
0.0189011
0.0167308
0.0165444
0.0193001
0.0196183
0.0164025
0.0174573
0.0162227
0.0165993
0.0159808
0.0170229
0.0170808
0.018066
0.0178022
0.0185049
0.0133636
0.0109393
0.019939
0.0169616
0.0112327
0.0137568
0.0150639
0.0159075
0.0269597
0.0258766
0.0303463
0.0322098
0.0228916