# vtk DataFile Version 2.0
Gerris simulation version 1.3.2 (131206-155120)
ASCII
DATASET UNSTRUCTURED_GRID

POINTS 1089 float
-0.5 0.46875 0
-0.46875 0.46875 0
-0.5 0.5 0
-0.46875 0.5 0
-0.4375 0.46875 0
-0.4375 0.5 0
-0.5 0.4375 0
-0.46875 0.4375 0
-0.4375 0.4375 0
-0.40625 0.46875 0
-0.40625 0.5 0
-0.375 0.46875 0
-0.375 0.5 0
-0.40625 0.4375 0
-0.375 0.4375 0
-0.5 0.40625 0
-0.46875 0.40625 0
-0.4375 0.40625 0
-0.5 0.375 0
-0.46875 0.375 0
-0.4375 0.375 0
-0.40625 0.40625 0
-0.375 0.40625 0
-0.40625 0.375 0
-0.375 0.375 0
-0.34375 0.46875 0
-0.34375 0.5 0
-0.3125 0.46875 0
-0.3125 0.5 0
-0.34375 0.4375 0
-0.3125 0.4375 0
-0.28125 0.46875 0
-0.28125 0.5 0
-0.25 0.46875 0
-0.25 0.5 0
-0.28125 0.4375 0
-0.25 0.4375 0
-0.34375 0.40625 0
-0.3125 0.40625 0
-0.34375 0.375 0
-0.3125 0.375 0
-0.28125 0.40625 0
-0.25 0.40625 0
-0.28125 0.375 0
-0.25 0.375 0
-0.5 0.34375 0
-0.46875 0.34375 0
-0.4375 0.34375 0
-0.5 0.3125 0
-0.46875 0.3125 0
-0.4375 0.3125 0
-0.40625 0.34375 0
-0.375 0.34375 0
-0.40625 0.3125 0
-0.375 0.3125 0
-0.5 0.28125 0
-0.46875 0.28125 0
-0.4375 0.28125 0
-0.5 0.25 0
-0.46875 0.25 0
-0.4375 0.25 0
-0.40625 0.28125 0
-0.375 0.28125 0
-0.40625 0.25 0
-0.375 0.25 0
-0.34375 0.34375 0
-0.3125 0.34375 0
-0.34375 0.3125 0
-0.3125 0.3125 0
-0.28125 0.34375 0
-0.25 0.34375 0
-0.28125 0.3125 0
-0.25 0.3125 0
-0.34375 0.28125 0
-0.3125 0.28125 0
-0.34375 0.25 0
-0.3125 0.25 0
-0.28125 0.28125 0
-0.25 0.28125 0
-0.28125 0.25 0
-0.25 0.25 0
-0.21875 0.46875 0
-0.21875 0.5 0
-0.1875 0.46875 0
-0.1875 0.5 0
-0.21875 0.4375 0
-0.1875 0.4375 0
-0.15625 0.46875 0
-0.15625 0.5 0
-0.125 0.46875 0
-0.125 0.5 0
-0.15625 0.4375 0
-0.125 0.4375 0
-0.21875 0.40625 0
-0.1875 0.40625 0
-0.21875 0.375 0
-0.1875 0.375 0
-0.15625 0.40625 0
-0.125 0.40625 0
-0.15625 0.375 0
-0.125 0.375 0
-0.09375 0.46875 0
-0.09375 0.5 0
-0.0625 0.46875 0
-0.0625 0.5 0
-0.09375 0.4375 0
-0.0625 0.4375 0
-0.03125 0.46875 0
-0.03125 0.5 0
0 0.46875 0
0 0.5 0
-0.03125 0.4375 0
0 0.4375 0
-0.09375 0.40625 0
-0.0625 0.40625 0
-0.09375 0.375 0
-0.0625 0.375 0
-0.03125 0.40625 0
0 0.40625 0
-0.03125 0.375 0
0 0.375 0
-0.21875 0.34375 0
-0.1875 0.34375 0
-0.21875 0.3125 0
-0.1875 0.3125 0
-0.15625 0.34375 0
-0.125 0.34375 0
-0.15625 0.3125 0
-0.125 0.3125 0
-0.21875 0.28125 0
-0.1875 0.28125 0
-0.21875 0.25 0
-0.1875 0.25 0
-0.15625 0.28125 0
-0.125 0.28125 0
-0.15625 0.25 0
-0.125 0.25 0
-0.09375 0.34375 0
-0.0625 0.34375 0
-0.09375 0.3125 0
-0.0625 0.3125 0
-0.03125 0.34375 0
0 0.34375 0
-0.03125 0.3125 0
0 0.3125 0
-0.09375 0.28125 0
-0.0625 0.28125 0
-0.09375 0.25 0
-0.0625 0.25 0
-0.03125 0.28125 0
0 0.28125 0
-0.03125 0.25 0
0 0.25 0
-0.5 0.21875 0
-0.46875 0.21875 0
-0.4375 0.21875 0
-0.5 0.1875 0
-0.46875 0.1875 0
-0.4375 0.1875 0
-0.40625 0.21875 0
-0.375 0.21875 0
-0.40625 0.1875 0
-0.375 0.1875 0
-0.5 0.15625 0
-0.46875 0.15625 0
-0.4375 0.15625 0
-0.5 0.125 0
-0.46875 0.125 0
-0.4375 0.125 0
-0.40625 0.15625 0
-0.375 0.15625 0
-0.40625 0.125 0
-0.375 0.125 0
-0.34375 0.21875 0
-0.3125 0.21875 0
-0.34375 0.1875 0
-0.3125 0.1875 0
-0.28125 0.21875 0
-0.25 0.21875 0
-0.28125 0.1875 0
-0.25 0.1875 0
-0.34375 0.15625 0
-0.3125 0.15625 0
-0.34375 0.125 0
-0.3125 0.125 0
-0.28125 0.15625 0
-0.25 0.15625 0
-0.28125 0.125 0
-0.25 0.125 0
-0.5 0.09375 0
-0.46875 0.09375 0
-0.4375 0.09375 0
-0.5 0.0625 0
-0.46875 0.0625 0
-0.4375 0.0625 0
-0.40625 0.09375 0
-0.375 0.09375 0
-0.40625 0.0625 0
-0.375 0.0625 0
-0.5 0.03125 0
-0.46875 0.03125 0
-0.4375 0.03125 0
-0.5 0 0
-0.46875 0 0
-0.4375 0 0
-0.40625 0.03125 0
-0.375 0.03125 0
-0.40625 0 0
-0.375 0 0
-0.34375 0.09375 0
-0.3125 0.09375 0
-0.34375 0.0625 0
-0.3125 0.0625 0
-0.28125 0.09375 0
-0.25 0.09375 0
-0.28125 0.0625 0
-0.25 0.0625 0
-0.34375 0.03125 0
-0.3125 0.03125 0
-0.34375 0 0
-0.3125 0 0
-0.28125 0.03125 0
-0.25 0.03125 0
-0.28125 0 0
-0.25 0 0
-0.21875 0.21875 0
-0.1875 0.21875 0
-0.21875 0.1875 0
-0.1875 0.1875 0
-0.15625 0.21875 0
-0.125 0.21875 0
-0.15625 0.1875 0
-0.125 0.1875 0
-0.21875 0.15625 0
-0.1875 0.15625 0
-0.21875 0.125 0
-0.1875 0.125 0
-0.15625 0.15625 0
-0.125 0.15625 0
-0.15625 0.125 0
-0.125 0.125 0
-0.09375 0.21875 0
-0.0625 0.21875 0
-0.09375 0.1875 0
-0.0625 0.1875 0
-0.03125 0.21875 0
0 0.21875 0
-0.03125 0.1875 0
0 0.1875 0
-0.09375 0.15625 0
-0.0625 0.15625 0
-0.09375 0.125 0
-0.0625 0.125 0
-0.03125 0.15625 0
0 0.15625 0
-0.03125 0.125 0
0 0.125 0
-0.21875 0.09375 0
-0.1875 0.09375 0
-0.21875 0.0625 0
-0.1875 0.0625 0
-0.15625 0.09375 0
-0.125 0.09375 0
-0.15625 0.0625 0
-0.125 0.0625 0
-0.21875 0.03125 0
-0.1875 0.03125 0
-0.21875 0 0
-0.1875 0 0
-0.15625 0.03125 0
-0.125 0.03125 0
-0.15625 0 0
-0.125 0 0
-0.09375 0.09375 0
-0.0625 0.09375 0
-0.09375 0.0625 0
-0.0625 0.0625 0
-0.03125 0.09375 0
0 0.09375 0
-0.03125 0.0625 0
0 0.0625 0
-0.09375 0.03125 0
-0.0625 0.03125 0
-0.09375 0 0
-0.0625 0 0
-0.03125 0.03125 0
0 0.03125 0
-0.03125 0 0
0 0 0
0.03125 0.46875 0
0.03125 0.5 0
0.0625 0.46875 0
0.0625 0.5 0
0.03125 0.4375 0
0.0625 0.4375 0
0.09375 0.46875 0
0.09375 0.5 0
0.125 0.46875 0
0.125 0.5 0
0.09375 0.4375 0
0.125 0.4375 0
0.03125 0.40625 0
0.0625 0.40625 0
0.03125 0.375 0
0.0625 0.375 0
0.09375 0.40625 0
0.125 0.40625 0
0.09375 0.375 0
0.125 0.375 0
0.15625 0.46875 0
0.15625 0.5 0
0.1875 0.46875 0
0.1875 0.5 0
0.15625 0.4375 0
0.1875 0.4375 0
0.21875 0.46875 0
0.21875 0.5 0
0.25 0.46875 0
0.25 0.5 0
0.21875 0.4375 0
0.25 0.4375 0
0.15625 0.40625 0
0.1875 0.40625 0
0.15625 0.375 0
0.1875 0.375 0
0.21875 0.40625 0
0.25 0.40625 0
0.21875 0.375 0
0.25 0.375 0
0.03125 0.34375 0
0.0625 0.34375 0
0.03125 0.3125 0
0.0625 0.3125 0
0.09375 0.34375 0
0.125 0.34375 0
0.09375 0.3125 0
0.125 0.3125 0
0.03125 0.28125 0
0.0625 0.28125 0
0.03125 0.25 0
0.0625 0.25 0
0.09375 0.28125 0
0.125 0.28125 0
0.09375 0.25 0
0.125 0.25 0
0.15625 0.34375 0
0.1875 0.34375 0
0.15625 0.3125 0
0.1875 0.3125 0
0.21875 0.34375 0
0.25 0.34375 0
0.21875 0.3125 0
0.25 0.3125 0
0.15625 0.28125 0
0.1875 0.28125 0
0.15625 0.25 0
0.1875 0.25 0
0.21875 0.28125 0
0.25 0.28125 0
0.21875 0.25 0
0.25 0.25 0
0.28125 0.46875 0
0.28125 0.5 0
0.3125 0.46875 0
0.3125 0.5 0
0.28125 0.4375 0
0.3125 0.4375 0
0.34375 0.46875 0
0.34375 0.5 0
0.375 0.46875 0
0.375 0.5 0
0.34375 0.4375 0
0.375 0.4375 0
0.28125 0.40625 0
0.3125 0.40625 0
0.28125 0.375 0
0.3125 0.375 0
0.34375 0.40625 0
0.375 0.40625 0
0.34375 0.375 0
0.375 0.375 0
0.40625 0.46875 0
0.40625 0.5 0
0.4375 0.46875 0
0.4375 0.5 0
0.40625 0.4375 0
0.4375 0.4375 0
0.46875 0.46875 0
0.46875 0.5 0
0.5 0.46875 0
0.5 0.5 0
0.46875 0.4375 0
0.5 0.4375 0
0.40625 0.40625 0
0.4375 0.40625 0
0.40625 0.375 0
0.4375 0.375 0
0.46875 0.40625 0
0.5 0.40625 0
0.46875 0.375 0
0.5 0.375 0
0.28125 0.34375 0
0.3125 0.34375 0
0.28125 0.3125 0
0.3125 0.3125 0
0.34375 0.34375 0
0.375 0.34375 0
0.34375 0.3125 0
0.375 0.3125 0
0.28125 0.28125 0
0.3125 0.28125 0
0.28125 0.25 0
0.3125 0.25 0
0.34375 0.28125 0
0.375 0.28125 0
0.34375 0.25 0
0.375 0.25 0
0.40625 0.34375 0
0.4375 0.34375 0
0.40625 0.3125 0
0.4375 0.3125 0
0.46875 0.34375 0
0.5 0.34375 0
0.46875 0.3125 0
0.5 0.3125 0
0.40625 0.28125 0
0.4375 0.28125 0
0.40625 0.25 0
0.4375 0.25 0
0.46875 0.28125 0
0.5 0.28125 0
0.46875 0.25 0
0.5 0.25 0
0.03125 0.21875 0
0.0625 0.21875 0
0.03125 0.1875 0
0.0625 0.1875 0
0.09375 0.21875 0
0.125 0.21875 0
0.09375 0.1875 0
0.125 0.1875 0
0.03125 0.15625 0
0.0625 0.15625 0
0.03125 0.125 0
0.0625 0.125 0
0.09375 0.15625 0
0.125 0.15625 0
0.09375 0.125 0
0.125 0.125 0
0.15625 0.21875 0
0.1875 0.21875 0
0.15625 0.1875 0
0.1875 0.1875 0
0.21875 0.21875 0
0.25 0.21875 0
0.21875 0.1875 0
0.25 0.1875 0
0.15625 0.15625 0
0.1875 0.15625 0
0.15625 0.125 0
0.1875 0.125 0
0.21875 0.15625 0
0.25 0.15625 0
0.21875 0.125 0
0.25 0.125 0
0.03125 0.09375 0
0.0625 0.09375 0
0.03125 0.0625 0
0.0625 0.0625 0
0.09375 0.09375 0
0.125 0.09375 0
0.09375 0.0625 0
0.125 0.0625 0
0.03125 0.03125 0
0.0625 0.03125 0
0.03125 0 0
0.0625 0 0
0.09375 0.03125 0
0.125 0.03125 0
0.09375 0 0
0.125 0 0
0.15625 0.09375 0
0.1875 0.09375 0
0.15625 0.0625 0
0.1875 0.0625 0
0.21875 0.09375 0
0.25 0.09375 0
0.21875 0.0625 0
0.25 0.0625 0
0.15625 0.03125 0
0.1875 0.03125 0
0.15625 0 0
0.1875 0 0
0.21875 0.03125 0
0.25 0.03125 0
0.21875 0 0
0.25 0 0
0.28125 0.21875 0
0.3125 0.21875 0
0.28125 0.1875 0
0.3125 0.1875 0
0.34375 0.21875 0
0.375 0.21875 0
0.34375 0.1875 0
0.375 0.1875 0
0.28125 0.15625 0
0.3125 0.15625 0
0.28125 0.125 0
0.3125 0.125 0
0.34375 0.15625 0
0.375 0.15625 0
0.34375 0.125 0
0.375 0.125 0
0.40625 0.21875 0
0.4375 0.21875 0
0.40625 0.1875 0
0.4375 0.1875 0
0.46875 0.21875 0
0.5 0.21875 0
0.46875 0.1875 0
0.5 0.1875 0
0.40625 0.15625 0
0.4375 0.15625 0
0.40625 0.125 0
0.4375 0.125 0
0.46875 0.15625 0
0.5 0.15625 0
0.46875 0.125 0
0.5 0.125 0
0.28125 0.09375 0
0.3125 0.09375 0
0.28125 0.0625 0
0.3125 0.0625 0
0.34375 0.09375 0
0.375 0.09375 0
0.34375 0.0625 0
0.375 0.0625 0
0.28125 0.03125 0
0.3125 0.03125 0
0.28125 0 0
0.3125 0 0
0.34375 0.03125 0
0.375 0.03125 0
0.34375 0 0
0.375 0 0
0.40625 0.09375 0
0.4375 0.09375 0
0.40625 0.0625 0
0.4375 0.0625 0
0.46875 0.09375 0
0.5 0.09375 0
0.46875 0.0625 0
0.5 0.0625 0
0.40625 0.03125 0
0.4375 0.03125 0
0.40625 0 0
0.4375 0 0
0.46875 0.03125 0
0.5 0.03125 0
0.46875 0 0
0.5 0 0
-0.5 -0.03125 0
-0.46875 -0.03125 0
-0.4375 -0.03125 0
-0.5 -0.0625 0
-0.46875 -0.0625 0
-0.4375 -0.0625 0
-0.40625 -0.03125 0
-0.375 -0.03125 0
-0.40625 -0.0625 0
-0.375 -0.0625 0
-0.5 -0.09375 0
-0.46875 -0.09375 0
-0.4375 -0.09375 0
-0.5 -0.125 0
-0.46875 -0.125 0
-0.4375 -0.125 0
-0.40625 -0.09375 0
-0.375 -0.09375 0
-0.40625 -0.125 0
-0.375 -0.125 0
-0.34375 -0.03125 0
-0.3125 -0.03125 0
-0.34375 -0.0625 0
-0.3125 -0.0625 0
-0.28125 -0.03125 0
-0.25 -0.03125 0
-0.28125 -0.0625 0
-0.25 -0.0625 0
-0.34375 -0.09375 0
-0.3125 -0.09375 0
-0.34375 -0.125 0
-0.3125 -0.125 0
-0.28125 -0.09375 0
-0.25 -0.09375 0
-0.28125 -0.125 0
-0.25 -0.125 0
-0.5 -0.15625 0
-0.46875 -0.15625 0
-0.4375 -0.15625 0
-0.5 -0.1875 0
-0.46875 -0.1875 0
-0.4375 -0.1875 0
-0.40625 -0.15625 0
-0.375 -0.15625 0
[...]
POINT_DATA 1089
SCALARS T float
LOOKUP_TABLE default
0
0
0
0
0
0
0
0
0
0
0
0
0
0
0
0
0
0
0
0
0
0
0
0
0
0
0
0
0
0
0
0
0
0
0
0
0
0
0
0
0
0
0
0
0
0
0
0
0
0
0
0
0
0
0
0
0
0
0
0
0
0
0
0
0
0
0
0
0
0
0
0
0
0
0
0
0
0
0
0
0
0
0
0
0
0
0
0
0
0
0
0
0
0
0
0
0
0
0
0
0
0
0
0
0
0
0
0
0
0
0
0
0
0
0
0
0
0
0
0
0
0
0
0
0
0
0
0
0
0
0
0
0
0
0
0
0
0
0
0
0
0
0
0
0
0
0
0
0
0
0
0
0
0
0
0
0
0
0
0
0
0
0
0
0
0
0
0
0
0
0
0
0
0
0
0
0
0
0
0
0
0
0
0
0
0
0
0
0
0
0
0
0
0
0
0
0
0
0
0
0
0
0
0
0
0
0
0
0
0
0
0
0
0
0
0
0.045387
0
0
0
0
0.0121935
0.27535
0.121418
0.589188
0
0
0
0
0
0
0
0
0
0
0
0
0
0
0
0
0
0
0
0
0
0
0
0
0
0
0
0
0
0
0
0
0.0156262
0.141274
0.288165
0.618427
0.316957
0.390746
0.816957
0.890746
0.740309
0.977152
0.96777
1
1
1
1
1
0.350728
0.19692
0.850728
0.690599
0.045629
0
0.385457
0.0961493
1
0.993679
1
1
0.834831
0.392155
0.995003
0.718634
0
0
0
0
0
0
0
0
0
0
0
0
0
0
0
0
0
0
0
0
0
0
0
0
0
0
0
0
0
0
0
0
0
0
0
0
0
0
0
0
0
0
0
0
0
0
0
0
0
0
0
0
0
0.0463964
0
0.163807
0
0.00191131
0.0932865
0.32418
0.0121621
0.0107015
0.491026
0.454309
0.386921
0.819506
0.661045
0.997238
0.978864
0.943608
1
1
0
0
0
0
0
0
0
0
0
0
0
0
0
0
0
0
0
0
0
0
0
0
0
0
0
0
0
0
0
0
0
0
0
0
0
0
0
0
0
0
0.00045074
0
0.229986
0.0358094
0
0
0
0
0.680143
0.238626
0.950607
0.479368
0.00220966
0
0.028761
0
0
0
0
0
0
0
0
0
0
0
0
0
0
0
0
0
0
0
0
0
0
0.214975
0
0.109057
0
0
0
0
0
0.0114932
0
0
0.714975
1
0.570817
0.96176
1
1
1
1
0.239576
0.594398
0.0163231
0.132639
0.762308
0.727796
0.262308
0.227796
0
0
0
0
0
0
0
0
0.0510031
0
0.223631
0
0
0
0
0
0
0
0
0
0
0
0
0
0
0
0
5.46675e-05
0
0
5.46684e-05
8.37894e-10
0.995114
0.533117
0.878117
0.389568
0.0380022
0
0.0114509
0
0.465679
0.133875
0.0826761
0.000872452
0
0
0
0
0
0
0
0
0
0
0
0
0
0
0
0
0
0
0
0
0
0
0
0
0
0
0
0
0
0
0
0
0
0
0
0
0
0
0
0
0
0
0
0
0
0
0
0
0
0
0
0
0
0
0
0
0
0
0
0
0
0
0
0
0
0
0
0
0
0
0
0
0
0
0
0
0.29658
0.79658
0.412853
0.912853
0
0
0
0
0.453983
0.953983
0.425681
0.925681
0
0
0
0
0
0
0
0
0
0
0
0
0
0
0
0
0
0
0
0
0
0
0
0
0.326017
0.826017
0.155209
0.643755
0
0
0
0
0.0263879
0.348817
0
0.0838834
1
1
1
1
1
1
1
1
1
1
1
1
1
1
1
1
1
1
1
1
1
0.914765
1
0.992137
1
1
1
1
1
1
1
0.992413
1
1
0.988546
1
1
1
1
1
0.8197
0.997271
0.3917
0.749746
1
1
0.940266
0.997889
1
1
1
1
1
0.916867
0.99887
0.727727
1
0.999796
0.951582
0.779566
0.86157
0.416176
0.440439
0.112904
0
0
0
0
0
0
0
0
0
0
0
0
0
0
0
0
0
0
0
0
0
0
0
0
0
0
0
0
0
0
0
0
0
0
0
0
0
0
0
0
0
0
0
0
0
0
0
0
0
0
0
0
0
0
0
0
0
0
0
0
0
0
0
0
0
0
0
0
0
0
0
0
0.0605459
0.252475
0
0
0.447637
0.51435
0.00737118
0.0164606
0
0
0
0
0
0
0
0
0.460672
0.279769
0.00908949
5.09327e-08
0.0777385
0
0
0
0
0
0
0
0
0
0
0
0
0
0
0
0
0
0
0
0
0
0
0
0
0
0
0
0
0
0
0
0
0
0
0
0
0
0
0
0
0
0
0
0.421082
0.0063169
0.532295
0.0401574
0
0
0
0
0.567651
0.0676507
0.532317
0.0399043
0
0
0
0
0
0.00682603
0
0.0081096
0.0211194
0.150654
0.191136
0.569387
0
0.00133824
0
0
0.377867
0.876529
0.305284
0.802229
0.422962
0.00609413
0.228857
0
0
0
0
0
0.0544021
0
0
0
0
0
0
0
0
0
0
0
0.097488
0.365682
0
0.0212498
0
0
0
0
0
0
0
0
0.280857
0.182098
0.780857
0.649845
0.0376017
0
0.265832
0.0104836
1
0.967747
0.996944
0.905212
0.498801
0.0310538
0.427056
0.0218431
0
0
0
0
0
0
0
0
0
0
0
0
0
0
0
0
0.551682
0.43883
0.0547376
0.0336176
0.156615
0.00127284
0.000129834
0
0
0
0
0
0
0
0
0
0
0
0
0
0
0
0
0
0
0
0
0
0
0
0
0
0
0
0
0
0
0
0
0
0
0
0
0
0
0
0
0
0
0
0
0
0
0
0
0
0
0
0
0
0
0
0
0
0
0
0
0
0
0
0
0
0
0
0
0
0
0
0
0
0
0
0
0
0
0
0
0
0
0
0
0
0
0
0
0
0
0
0
0
0
0
0
0
0
0
0
0
0
0
0
0
0
0
0
0
0
0
0
0
0
0
0
0
0
0
0
0
0
0
0
0
0
0
0
0
0
0
0
0
0
0
0
0
0
0
0
0
0
0
0
0
0
0
0
0
0
0
0
0

SCALARS P float
LOOKUP_TABLE default
-0.00956686
-0.00963327
-0.00956409
-0.0096313
-0.00972634
-0.00972556
-0.00954732
-0.0096118
-0.00970431
-0.00984496
-0.00984749
-0.00998723
-0.00999639
-0.00982167
-0.00996092
-0.00950868
-0.00956981
-0.00966221
-0.00945022
-0.00950816
-0.0096012
-0.00978042
-0.00992035
-0.00972272
-0.00986729
-0.01015
-0.0101706
-0.0103278
-0.0103653
-0.0101178
-0.0102866
-0.0105137
-0.0105739
-0.0106978
-0.0107854
-0.0104602
-0.0106293
-0.010077
-0.0102441
-0.0100291
-0.0102017
-0.0104144
-0.0105792
-0.0103774
-0.0105473
-0.00936511
-0.00942348
-0.00951974
-0.00924406
-0.00930943
-0.00941435
-0.009648
-0.00980164
-0.00955403
-0.00972171
-0.00908255
-0.0091623
-0.00928225
-0.00888158
-0.00898242
-0.00912234
-0.00943823
-0.00962473
-0.00929811
-0.00950695
-0.0099744
-0.0101595
-0.00991129
-0.0101163
-0.010349
-0.0105337
-0.0103285
-0.0105382
-0.00983683
-0.0100691
-0.00974632
-0.0100133
-0.0103137
-0.0105603
-0.0103009
-0.0105991
-0.0108676
-0.0109842
-0.0110101
-0.0111534
-0.0107835
-0.0109119
-0.0111108
-0.011272
-0.0111607
-0.0113266
-0.0110038
-0.0110523
-0.0107288
-0.0108531
-0.0107018
-0.0108308
-0.0109432
-0.0109928
-0.0109251
-0.010978
-0.0111558
-0.0113114
-0.0111001
-0.0112321
-0.0110543
-0.0110128
-0.0110042
-0.0111049
-0.0108821
-0.0109491
-0.0109356
-0.0108336
-0.0109992
-0.0109649
-0.0109867
-0.0109532
-0.0108962
-0.0108028
-0.0108836
-0.0107869
-0.0107029
-0.0108451
-0.010733
-0.0108985
-0.0109499
-0.0110087
-0.0110212
-0.011089
-0.0107941
-0.0109958
-0.0108899
-0.0111455
-0.0111467
-0.0112285
-0.0113392
-0.0114416
-0.011018
-0.0109794
-0.011097
-0.0110463
-0.0108996
-0.0107881
-0.0109449
-0.0108039
-0.0112334
-0.0111622
-0.0114413
-0.0113389
-0.0110264
-0.0108425
-0.0111529
-0.010911
-0.00865538
-0.00877774
-0.00893741
-0.0084184
-0.00855663
-0.00873037
-0.00913259
-0.00936405
-0.00893978
-0.00918971
-0.00818784
-0.00832954
-0.00850575
-0.00797724
-0.00810549
-0.00826691
-0.00871797
-0.00897554
-0.008464
-0.00871048
-0.00963288
-0.00994037
-0.00948646
-0.00983803
-0.0102816
-0.0106486
-0.0102441
-0.0107038
-0.0092913
-0.00968338
-0.00902757
-0.0094479
-0.0101606
-0.0107378
-0.00999773
-0.0107301
-0.00779584
-0.00789207
-0.00801748
-0.00764915
-0.00769582
-0.0077625
-0.00817498
-0.0083816
-0.00785116
-0.00797927
-0.00754321
-0.00752664
-0.00751294
-0.00748589
-0.00739625
-0.00728581
-0.00750172
-0.00750431
-0.00714781
-0.006981
-0.0086685
-0.00908478
-0.0081868
-0.00853058
-0.00969123
-0.0106172
-0.00912628
-0.00734566
-0.00756345
-0.00771307
-0.00680693
-0.00661775
-0.00744664
0.00701399
-0.000332845
0.0251033
-0.0110205
-0.0113567
-0.0111945
-0.0116521
-0.0116177
-0.0117539
-0.0120141
-0.0121974
-0.0113963
-0.0120392
-0.0116502
-0.0125914
-0.0125726
-0.012844
-0.0133817
-0.0137667
-0.0117453
-0.0115932
-0.0121726
-0.0119463
-0.011332
-0.0110063
-0.011577
-0.0111339
-0.0127914
-0.0124371
-0.0136608
-0.0131199
-0.0118969
-0.0112878
-0.0123165
-0.0114491
-0.0107955
-0.00333438
0.00691836
0.0279231
0.0080897
0.0129777
0.0415077
0.046765
0.0347023
0.0500441
0.0468991
0.0498245
0.0520734
0.0523963
0.0504963
0.0508157
0.0101544
-0.000272886
0.0438664
0.0325257
-0.00978842
-0.0115873
0.0121378
-0.00553577
0.0523292
0.051497
0.0506775
0.0501464
0.0402805
0.0127113
0.0487759
0.0313316
-0.0107474
-0.0107826
-0.0106115
-0.0106196
-0.0107181
-0.0105975
-0.0104803
-0.010468
-0.0103538
-0.0103302
-0.0104757
-0.0103507
-0.0106943
-0.0105762
-0.0106714
-0.0105413
-0.0104524
-0.0103181
-0.0104023
-0.0102473
-0.0102266
-0.0102012
-0.0101005
-0.0100797
-0.0102159
-0.0100808
-0.00996179
-0.00995643
-0.00982444
-0.00983573
-0.0099192
-0.00976123
-0.0101691
-0.0100265
-0.0100904
-0.00998057
-0.00984167
-0.0096773
-0.00980419
-0.00965354
-0.0106535
-0.0105001
-0.0106327
-0.010433
-0.0103383
-0.0101564
-0.0102138
-0.0099228
-0.0106222
-0.0103731
-0.010629
-0.0103347
-0.0101025
-0.00415406
-0.0100083
0.0100026
-0.0100004
-0.00975184
0.00135725
0.0289421
-0.00862627
-0.00874247
0.0488272
0.0439566
0.0367869
0.0885927
0.0696485
0.109903
0.107758
0.103004
0.110304
0.110232
-0.00971023
-0.0097292
-0.00962292
-0.00964128
-0.00964317
-0.00956432
-0.0095681
-0.00957752
-0.00953272
-0.00953359
-0.00953316
-0.0095158
-0.00955899
-0.00948299
-0.00946078
-0.0093158
-0.00949061
-0.00949983
-0.00940391
-0.00946587
-0.00951312
-0.00950931
-0.00950967
-0.00950475
-0.00950249
-0.00949773
-0.00952673
-0.00952247
-0.00956686
-0.00956371
-0.00951098
-0.00954732
-0.00948969
-0.00947672
-0.0094632
-0.00943977
-0.00947998
-0.00950868
-0.00943002
-0.00945022
-0.00921064
-0.00884166
0.0180939
-0.00408478
-0.00919959
-0.00937765
-0.00894935
-0.00925929
0.0712974
0.0187856
0.103581
0.046436
-0.009293
-0.0092399
-0.00657621
-0.00896878
-0.00939523
-0.00936666
-0.00927471
-0.00924061
-0.00934853
-0.00936511
-0.00922254
-0.00924406
-0.0091167
-0.00905875
-0.00884223
-0.00880536
-0.00904754
-0.00908255
-0.0088222
-0.00888158
-0.0106431
-0.0102863
-0.0106695
-0.0102322
-0.00989057
0.0163689
-0.00979897
0.00392157
-0.0106881
-0.0101613
-0.0106544
-0.0100325
-0.00969814
-0.0077592
-0.00953948
-0.00911724
0.0761707
0.11006
0.0594798
0.105921
0.110245
0.110303
0.110415
0.110574
0.0202413
0.0630466
-0.00661654
0.00793636
0.0832316
0.0791414
0.0238764
0.0197393
-0.0105073
-0.00977379
-0.010134
-0.00930701
-0.00926018
-0.00888319
-0.00884651
-0.00856217
-0.0065166
-0.00852111
0.00386737
-0.00727747
-0.00826442
-0.00817035
-0.00747945
-0.00772179
-0.00855386
-0.00833413
-0.00828146
-0.00814475
-0.00804278
-0.00784471
-0.00779372
-0.00744701
-0.00802493
-0.00815186
-0.00781391
-0.00833481
-0.0076059
-0.00707196
-0.00751992
-0.00679719
0.109161
0.0535862
0.0955279
0.0375167
-0.00463566
-0.00844496
-0.0066568
-0.00799164
0.047454
0.00806302
0.00231116
-0.00734875
-0.00750216
-0.00769754
-0.00744782
-0.00754797
-0.00847862
-0.00851077
-0.00811916
-0.00821547
-0.00856816
-0.00865538
-0.00830851
-0.0084184
-0.00783919
-0.00796202
-0.00765701
-0.00777127
-0.00807004
-0.00818784
-0.00787027
-0.00797724
-0.00759991
-0.00725309
-0.00728219
-0.00699704
-0.00727914
-0.00741995
-0.00709348
-0.00733349
-0.00701431
-0.00652211
-0.00665794
-0.0054735
-0.00673762
-0.00722524
-0.0059467
-0.00704567
-0.00753675
-0.00764002
-0.00747521
-0.00756579
-0.00771618
-0.00779584
-0.00761003
-0.00764915
-0.00744
-0.00753392
-0.0074115
-0.00753987
-0.00755057
-0.00754321
-0.00754218
-0.00748589
-0.00750148
-0.00732749
-0.00711357
-0.00760957
-0.00733594
-0.0070259
-0.00683948
-0.00648777
-0.00663384
-0.00612504
-0.00774605
-0.00740836
-0.00704109
-0.00784852
-0.00752374
-0.00716081
-0.00658274
-0.00598787
-0.00670877
-0.0061205
-0.00602611
-0.00541787
-0.00540237
-0.00443768
0.00971445
0.0356227
0.0158684
0.0407338
-0.00511915
-0.00396892
-0.00527214
-0.00414462
0.0179069
0.0422603
0.0165163
0.0409991
-0.00796977
-0.00769916
-0.00738783
-0.00813238
-0.00793076
-0.007699
-0.00700667
-0.00651487
-0.00743131
-0.00710964
-0.00832656
-0.0081953
-0.00805118
-0.00854188
-0.00847063
-0.00840356
-0.00790549
-0.00776651
-0.00835988
-0.00836056
-0.0058567
-0.00499718
-0.00676815
-0.00638609
0.0113929
0.0367172
0.00174583
0.0279775
-0.00770601
-0.00772808
-0.00846177
-0.00868695
-0.00645504
0.0116168
-0.00909731
-0.00477236
0.0474484
0.0485984
0.0465424
0.0477616
0.0493069
0.0495997
0.048524
0.048813
0.0461229
0.0474208
0.0462207
0.0475693
0.0482161
0.0485025
0.0483997
0.0486801
0.0494405
0.0488283
0.0486354
0.0479747
0.0477351
0.0410878
0.0468472
0.0445863
0.0482989
0.0475906
0.0484389
0.0476646
0.046391
0.0446646
0.0463898
0.0440793
0.046934
0.0483029
0.047682
0.049621
0.0491348
0.0493971
0.0504289
0.0506656
0.0395142
0.0513468
0.0136799
0.0371664
0.0523012
0.0525074
0.0508385
0.0548737
0.0491044
0.0482538
0.0503109
0.0493735
0.0468631
0.0404765
0.0477593
0.0313886
0.0521102
0.0510767
0.0512652
0.0386237
0.0411148
0.0146485
0.0161281
-0.00335249
-0.00875257
-0.00873052
-0.00872561
-0.00895217
-0.00896573
-0.00900514
-0.00875925
-0.00885509
-0.00909013
-0.00924098
-0.00912654
-0.00916478
-0.00923303
-0.00927413
-0.00932781
-0.00941293
-0.00934759
-0.00952381
-0.00954185
-0.00972514
-0.00905533
-0.00939478
-0.00948957
-0.00986599
-0.00992852
-0.010894
-0.010415
-0.0112727
-0.00978429
-0.0101485
-0.00997773
-0.0103095
-0.0106408
-0.0113106
-0.010731
-0.0112527
-0.00939086
-0.00945314
-0.00954631
-0.00947778
-0.00954415
-0.00964008
-0.00967899
-0.00985765
-0.00977103
-0.00994029
-0.00953489
-0.00960246
-0.00969804
-0.00956371
-0.0096313
-0.00972556
-0.00982451
-0.00998284
-0.00984749
-0.00999639
-0.0100909
-0.0103817
-0.0101518
-0.0104041
-0.0107317
-0.0111349
-0.0106942
-0.0110107
-0.0101736
-0.0103933
-0.0101706
-0.0103653
-0.0106362
-0.0108905
-0.0105739
-0.0107854
-0.00820677
0.00384845
-0.0124453
-0.013854
0.0170912
0.0217763
-0.0141825
-0.0135925
-0.0121136
-0.0130169
-0.01183
-0.0124153
-0.0137292
-0.0139709
-0.0128494
-0.0130022
0.0178542
0.00547665
-0.0139426
-0.0137633
-0.00713831
-0.0108921
-0.012429
-0.0112935
-0.0137102
-0.0129971
-0.0128517
-0.0124275
-0.0121352
-0.0113571
-0.0118794
-0.0113311
-0.0115569
-0.0119597
-0.0113273
-0.0116133
-0.0122509
-0.0123605
-0.0118151
-0.0118954
-0.0111363
-0.0113509
-0.0109842
-0.0111534
-0.0115011
-0.0115654
-0.011272
-0.0113266
-0.0122695
-0.0119962
-0.0118416
-0.0116661
-0.0116269
-0.0112368
-0.0114153
-0.011134
-0.0115348
-0.0114177
-0.0113114
-0.0112321
-0.0112413
-0.0110343
-0.0111049
-0.0109491
0.0149246
-0.00580516
0.0206578
-0.00365339
-0.00668708
-0.00722903
-0.00614593
-0.00691216
0.0223271
-0.00216627
0.0205846
-0.00343015
-0.00595092
-0.00692113
-0.00610204
-0.00708884
-0.00771412
-0.00669454
-0.00767483
-0.00605385
-0.00450339
0.0184864
0.0264971
0.0944614
-0.00779657
-0.00794279
-0.00797951
-0.00876694
0.0620293
0.153609
0.0491836
0.141435
0.0151344
-0.00535858
0.00485211
-0.0066506
-0.00652616
-0.00732511
-0.00723301
-0.00772151
-0.00513515
-0.00784602
-0.00911668
-0.00879338
-0.00802558
-0.0082315
-0.00870671
-0.00871887
-0.00798737
-0.00853709
-0.00811599
-0.00836587
0.0102961
0.0607719
-0.00833206
-0.00379646
-0.00843133
-0.00855138
-0.00876233
-0.00877655
-0.0085247
-0.00836218
-0.00872495
-0.00860594
0.0418509
0.0256483
0.132294
0.108454
0.000893107
-0.0068741
0.0395036
-0.0070119
0.174801
0.167928
0.174741
0.156755
0.0802989
-0.00553283
0.0680625
-0.00632159
-0.00750035
-0.00765909
-0.00849165
-0.00814366
-0.00762702
-0.00750148
-0.00787351
-0.00760957
-0.00932749
-0.00856794
-0.00901973
-0.00854097
-0.00810696
-0.00774605
-0.00817113
-0.00784852
0.0940295
0.0719967
0.00300363
-0.00102884
0.0197439
-0.00867963
-0.00798937
-0.00852538
-0.00796465
-0.00782968
-0.00841076
-0.00834609
-0.00825189
-0.00852035
-0.00852165
-0.00864359
-0.00865121
-0.0084552
-0.00852017
-0.00845423
-0.00821501
-0.00796977
-0.00830573
-0.00813238
-0.00855126
-0.00852722
-0.00866823
-0.00865771
-0.00843858
-0.00832656
-0.0086069
-0.00854188
-0.0100005
-0.00952757
-0.0105044
-0.0100088
-0.00927632
-0.00915643
-0.00969585
-0.00950532
-0.0107446
-0.0103025
-0.0108547
-0.010477
-0.00998881
-0.0097726
-0.0101866
-0.00996962
-0.0090946
-0.00904305
-0.00937964
-0.0092834
-0.00897305
-0.00887122
-0.00919373
-0.00909728
-0.00961654
-0.00949642
-0.00980353
-0.00967237
-0.00939443
-0.00929871
-0.00956258
-0.00946505
-0.0108748
-0.010566
-0.0108574
-0.0106076
-0.0103129
-0.0101114
-0.0103921
-0.0102121
-0.0108217
-0.0106207
-0.0107826
-0.0106196
-0.0104403
-0.0102831
-0.010468
-0.0103302
-0.00994957
-0.00981742
-0.0100611
-0.00993278
-0.00970465
-0.00960477
-0.00981866
-0.00971501
-0.0101446
-0.0100209
-0.0102012
-0.0100797
-0.00990414
-0.0097944
-0.00995643
-0.00983573
-0.00874754
-0.00869361
-0.00900415
-0.00895183
-0.00875393
-0.00880089
-0.00895848
-0.00896747
-0.00921464
-0.00915633
-0.00938225
-0.00931873
-0.00913247
-0.00911862
-0.00927907
-0.00925255
-0.00881068
-0.00880469
-0.00896596
-0.00896139
-0.00878019
-0.00875257
-0.00895355
-0.00895217
-0.00910872
-0.00910526
-0.00923699
-0.00923377
-0.00910914
-0.00912654
-0.00924474
-0.00927413
-0.00951893
-0.00944884
-0.00962416
-0.00954773
-0.00939822
-0.00936284
-0.0094895
-0.00944814
-0.00969674
-0.00961376
-0.0097292
-0.00964128
-0.0095505
-0.00950566
-0.00957752
-0.00953359
-0.00934282
-0.00933931
-0.00942485
-0.00942067
-0.00935438
-0.00939086
-0.00943767
-0.00947778
-0.00948054
-0.00947578
-0.00950931
-0.00950475
-0.00949342
-0.00953489
-0.00952247
-0.00956409

SCALARS U float
LOOKUP_TABLE default
0.0206755
0.0210241
0.0203677
0.0207477
0.0213588
0.0211256
0.0210126
0.0213113
0.0215957
0.021674
0.0214882
0.021961
0.0218284
0.0218605
0.0220959
0.0213618
0.0216059
0.0218391
0.0217019
0.0218929
0.0220795
0.0220564
0.0222475
0.0222573
0.0224152
0.022202
0.0221289
0.0223754
0.0223675
0.0222838
0.0224024
0.0224537
0.0225129
0.0224087
0.0225296
0.0224261
0.0223306
0.0223932
0.0224705
0.0225328
0.0225844
0.0224532
0.022317
0.0225409
0.0223748
0.021999
0.022146
0.0222958
0.022225
0.0223401
0.0224636
0.0224457
0.0225839
0.0225957
0.0227261
0.0223645
0.0224546
0.0225561
0.0224236
0.0224803
0.0225507
0.0226742
0.022803
0.0226466
0.0227695
0.0226891
0.0227327
0.022834
0.0228879
0.0226807
0.0224989
0.0228481
0.0226706
0.0229245
0.0230052
0.0229056
0.0230229
0.0230005
0.0228548
0.0230761
0.0229991
0.022221
0.0223902
0.0218796
0.0220695
0.0221002
0.0217309
0.0214056
0.0215903
0.0208441
0.0210082
0.0212424
0.0206749
0.0220464
0.0216394
0.0220669
0.0216137
0.0211152
0.0205136
0.0210343
0.0203724
0.0202502
0.020385
0.0196893
0.0198007
0.0200804
0.019518
0.0192166
0.0193204
0.0188649
0.0189753
0.0190403
0.0186843
0.0198886
0.0193005
0.0196898
0.0190555
0.0188055
0.018445
0.0185339
0.0181708
0.0221607
0.0216572
0.0223162
0.0217656
0.0210069
0.0202614
0.0210334
0.0201826
0.0225096
0.0219265
0.0227062
0.0221233
0.0211084
0.0201317
0.0212234
0.0200956
0.0194975
0.0188015
0.0193137
0.0185398
0.0182508
0.0178982
0.0179585
0.0176269
0.0191317
0.0182619
0.0189255
0.0179283
0.0176513
0.0173567
0.0172784
0.0170136
0.0224067
0.022408
0.0224253
0.0223282
0.022237
0.0221671
0.0224779
0.0225758
0.0221431
0.0221816
0.0221537
0.0219487
0.021766
0.0218378
0.0215296
0.0212317
0.0216324
0.0215729
0.0209736
0.0208031
0.0227123
0.0228628
0.0222887
0.0224681
0.0229978
0.0230548
0.0227543
0.0231198
0.0216257
0.0218796
0.020838
0.0213653
0.0225415
0.02366
0.0229313
0.0255738
0.0213699
0.0209973
0.0206113
0.0207703
0.0203966
0.0199763
0.0202474
0.0200021
0.0195559
0.0192938
0.0201165
0.0197998
0.0194052
0.0195334
0.0192902
0.0189553
0.0189803
0.0187016
0.0185549
0.0181634
0.0201277
0.0212151
0.0195541
0.0211705
0.0241484
0.0283063
0.0247725
0.0278749
0.0188634
0.0202298
0.0178046
0.0176767
0.0223179
0.021104
0.016448
0.0120959
0.0229067
0.0224029
0.0233414
0.0230655
0.0214324
0.0200867
0.0219805
0.0201895
0.0247338
0.0249222
0.0278781
0.0281665
0.0235196
0.0206642
0.0257896
0.0213011
0.0186461
0.0174515
0.0181878
0.0165982
0.0167561
0.0165391
0.0158653
0.0158684
0.0173187
0.0147603
0.0160793
0.0119
0.0139149
0.0145154
0.0103709
0.0116752
0.0302996
0.0282464
0.026215
0.0209804
0.0242528
0.0201689
0.0177913
0.0179893
0.0158248
0.0121803
0.00828417
0.0095789
0.013369
0.0176626
0.0139124
0.0187228
0.0159836
0.0114134
0.0189058
0.0172431
0.00776986
0.00809349
0.0119795
0.00861541
0.0225362
0.0253866
0.0237085
0.0287869
0.0230394
0.0171978
0.0316737
0.0289739
0.0186432
0.0187596
0.0185359
0.0186414
0.0184692
0.0183909
0.0185165
0.0185848
0.0185391
0.0185456
0.0184312
0.0185424
0.0182448
0.0182117
0.0179979
0.0180274
0.0183291
0.0185595
0.0182375
0.0186573
0.0185691
0.0184948
0.0185368
0.0184028
0.0186929
0.0187278
0.018435
0.0182775
0.0183961
0.0182004
0.0186051
0.0185814
0.018895
0.0189873
0.0193115
0.0193815
0.0187396
0.0186795
0.0187196
0.0184682
0.0177748
0.0178923
0.0175671
0.0177851
0.0182268
0.0189269
0.0182417
0.0191674
0.017393
0.0177523
0.0171161
0.0174831
0.0184316
0.0195925
0.0181865
0.0187399
0.019845
0.019716
0.0196871
0.019214
0.0187432
0.0182671
0.0192904
0.0196725
0.0199499
0.0196146
0.0185887
0.0190749
0.020638
0.0219668
0.0206774
0.0225961
0.0184725
0.0182162
0.0186624
0.0183398
0.0187354
0.0190258
0.0189376
0.0185631
0.0192566
0.018859
0.0193802
0.0197257
0.0189348
0.01939
0.0188464
0.0196154
0.0198745
0.0202502
0.0203699
0.0207967
0.0196038
0.0192063
0.019961
0.0195814
0.0200641
0.0203899
0.0203204
0.0199695
0.0206755
0.0203525
0.0207061
0.0210126
0.0205678
0.0208493
0.0210787
0.0213049
0.0211119
0.0213618
0.0215092
0.0217019
0.0184861
0.0196071
0.0199266
0.020796
0.020791
0.0212868
0.0215139
0.021731
0.0223161
0.0220644
0.0240489
0.0237958
0.021887
0.0219978
0.0227404
0.022294