# vtk DataFile Version 2.0
Gerris simulation version 1.3.2 (131206-155120)
ASCII
DATASET UNSTRUCTURED_GRID

POINTS 1089 float
-0.5 0.46875 0
-0.46875 0.46875 0
-0.5 0.5 0
-0.46875 0.5 0
-0.4375 0.46875 0
-0.4375 0.5 0
-0.5 0.4375 0
-0.46875 0.4375 0
-0.4375 0.4375 0
-0.40625 0.46875 0
-0.40625 0.5 0
-0.375 0.46875 0
-0.375 0.5 0
-0.40625 0.4375 0
-0.375 0.4375 0
-0.5 0.40625 0
-0.46875 0.40625 0
-0.4375 0.40625 0
-0.5 0.375 0
-0.46875 0.375 0
-0.4375 0.375 0
-0.40625 0.40625 0
-0.375 0.40625 0
-0.40625 0.375 0
-0.375 0.375 0
-0.34375 0.46875 0
-0.34375 0.5 0
-0.3125 0.46875 0
-0.3125 0.5 0
-0.34375 0.4375 0
-0.3125 0.4375 0
-0.28125 0.46875 0
-0.28125 0.5 0
-0.25 0.46875 0
-0.25 0.5 0
-0.28125 0.4375 0
-0.25 0.4375 0
-0.34375 0.40625 0
-0.3125 0.40625 0
-0.34375 0.375 0
-0.3125 0.375 0
-0.28125 0.40625 0
-0.25 0.40625 0
-0.28125 0.375 0
-0.25 0.375 0
-0.5 0.34375 0
-0.46875 0.34375 0
-0.4375 0.34375 0
-0.5 0.3125 0
-0.46875 0.3125 0
-0.4375 0.3125 0
-0.40625 0.34375 0
-0.375 0.34375 0
-0.40625 0.3125 0
-0.375 0.3125 0
-0.5 0.28125 0
-0.46875 0.28125 0
-0.4375 0.28125 0
-0.5 0.25 0
-0.46875 0.25 0
-0.4375 0.25 0
-0.40625 0.28125 0
-0.375 0.28125 0
-0.40625 0.25 0
-0.375 0.25 0
-0.34375 0.34375 0
-0.3125 0.34375 0
-0.34375 0.3125 0
-0.3125 0.3125 0
-0.28125 0.34375 0
-0.25 0.34375 0
-0.28125 0.3125 0
-0.25 0.3125 0
-0.34375 0.28125 0
-0.3125 0.28125 0
-0.34375 0.25 0
-0.3125 0.25 0
-0.28125 0.28125 0
-0.25 0.28125 0
-0.28125 0.25 0
-0.25 0.25 0
-0.21875 0.46875 0
-0.21875 0.5 0
-0.1875 0.46875 0
-0.1875 0.5 0
-0.21875 0.4375 0
-0.1875 0.4375 0
-0.15625 0.46875 0
-0.15625 0.5 0
-0.125 0.46875 0
-0.125 0.5 0
-0.15625 0.4375 0
-0.125 0.4375 0
-0.21875 0.40625 0
-0.1875 0.40625 0
-0.21875 0.375 0
-0.1875 0.375 0
-0.15625 0.40625 0
-0.125 0.40625 0
-0.15625 0.375 0
-0.125 0.375 0
-0.09375 0.46875 0
-0.09375 0.5 0
-0.0625 0.46875 0
-0.0625 0.5 0
-0.09375 0.4375 0
-0.0625 0.4375 0
-0.03125 0.46875 0
-0.03125 0.5 0
0 0.46875 0
0 0.5 0
-0.03125 0.4375 0
0 0.4375 0
-0.09375 0.40625 0
-0.0625 0.40625 0
-0.09375 0.375 0
-0.0625 0.375 0
-0.03125 0.40625 0
0 0.40625 0
-0.03125 0.375 0
0 0.375 0
-0.21875 0.34375 0
-0.1875 0.34375 0
-0.21875 0.3125 0
-0.1875 0.3125 0
-0.15625 0.34375 0
-0.125 0.34375 0
-0.15625 0.3125 0
-0.125 0.3125 0
-0.21875 0.28125 0
-0.1875 0.28125 0
-0.21875 0.25 0
-0.1875 0.25 0
-0.15625 0.28125 0
-0.125 0.28125 0
-0.15625 0.25 0
-0.125 0.25 0
-0.09375 0.34375 0
-0.0625 0.34375 0
-0.09375 0.3125 0
-0.0625 0.3125 0
-0.03125 0.34375 0
0 0.34375 0
-0.03125 0.3125 0
0 0.3125 0
-0.09375 0.28125 0
-0.0625 0.28125 0
-0.09375 0.25 0
-0.0625 0.25 0
-0.03125 0.28125 0
0 0.28125 0
-0.03125 0.25 0
0 0.25 0
-0.5 0.21875 0
-0.46875 0.21875 0
-0.4375 0.21875 0
-0.5 0.1875 0
-0.46875 0.1875 0
-0.4375 0.1875 0
-0.40625 0.21875 0
-0.375 0.21875 0
-0.40625 0.1875 0
-0.375 0.1875 0
-0.5 0.15625 0
-0.46875 0.15625 0
-0.4375 0.15625 0
-0.5 0.125 0
-0.46875 0.125 0
-0.4375 0.125 0
-0.40625 0.15625 0
-0.375 0.15625 0
-0.40625 0.125 0
-0.375 0.125 0
-0.34375 0.21875 0
-0.3125 0.21875 0
-0.34375 0.1875 0
-0.3125 0.1875 0
-0.28125 0.21875 0
-0.25 0.21875 0
-0.28125 0.1875 0
-0.25 0.1875 0
-0.34375 0.15625 0
-0.3125 0.15625 0
-0.34375 0.125 0
-0.3125 0.125 0
-0.28125 0.15625 0
-0.25 0.15625 0
-0.28125 0.125 0
-0.25 0.125 0
-0.5 0.09375 0
-0.46875 0.09375 0
-0.4375 0.09375 0
-0.5 0.0625 0
-0.46875 0.0625 0
-0.4375 0.0625 0
-0.40625 0.09375 0
-0.375 0.09375 0
-0.40625 0.0625 0
-0.375 0.0625 0
-0.5 0.03125 0
-0.46875 0.03125 0
-0.4375 0.03125 0
-0.5 0 0
-0.46875 0 0
-0.4375 0 0
-0.40625 0.03125 0
-0.375 0.03125 0
-0.40625 0 0
-0.375 0 0
-0.34375 0.09375 0
-0.3125 0.09375 0
-0.34375 0.0625 0
-0.3125 0.0625 0
-0.28125 0.09375 0
-0.25 0.09375 0
-0.28125 0.0625 0
-0.25 0.0625 0
-0.34375 0.03125 0
-0.3125 0.03125 0
-0.34375 0 0
-0.3125 0 0
-0.28125 0.03125 0
-0.25 0.03125 0
-0.28125 0 0
-0.25 0 0
-0.21875 0.21875 0
-0.1875 0.21875 0
-0.21875 0.1875 0
-0.1875 0.1875 0
-0.15625 0.21875 0
-0.125 0.21875 0
-0.15625 0.1875 0
-0.125 0.1875 0
-0.21875 0.15625 0
-0.1875 0.15625 0
-0.21875 0.125 0
-0.1875 0.125 0
-0.15625 0.15625 0
-0.125 0.15625 0
-0.15625 0.125 0
-0.125 0.125 0
-0.09375 0.21875 0
-0.0625 0.21875 0
-0.09375 0.1875 0
-0.0625 0.1875 0
-0.03125 0.21875 0
0 0.21875 0
-0.03125 0.1875 0
0 0.1875 0
-0.09375 0.15625 0
-0.0625 0.15625 0
-0.09375 0.125 0
-0.0625 0.125 0
-0.03125 0.15625 0
0 0.15625 0
-0.03125 0.125 0
0 0.125 0
-0.21875 0.09375 0
-0.1875 0.09375 0
-0.21875 0.0625 0
-0.1875 0.0625 0
-0.15625 0.09375 0
-0.125 0.09375 0
-0.15625 0.0625 0
-0.125 0.0625 0
-0.21875 0.03125 0
-0.1875 0.03125 0
-0.21875 0 0
-0.1875 0 0
-0.15625 0.03125 0
-0.125 0.03125 0
-0.15625 0 0
-0.125 0 0
-0.09375 0.09375 0
-0.0625 0.09375 0
-0.09375 0.0625 0
-0.0625 0.0625 0
-0.03125 0.09375 0
0 0.09375 0
-0.03125 0.0625 0
0 0.0625 0
-0.09375 0.03125 0
-0.0625 0.03125 0
-0.09375 0 0
-0.0625 0 0
-0.03125 0.03125 0
0 0.03125 0
-0.03125 0 0
0 0 0
0.03125 0.46875 0
0.03125 0.5 0
0.0625 0.46875 0
0.0625 0.5 0
0.03125 0.4375 0
0.0625 0.4375 0
0.09375 0.46875 0
0.09375 0.5 0
0.125 0.46875 0
0.125 0.5 0
0.09375 0.4375 0
0.125 0.4375 0
0.03125 0.40625 0
0.0625 0.40625 0
0.03125 0.375 0
0.0625 0.375 0
0.09375 0.40625 0
0.125 0.40625 0
0.09375 0.375 0
0.125 0.375 0
0.15625 0.46875 0
0.15625 0.5 0
0.1875 0.46875 0
0.1875 0.5 0
0.15625 0.4375 0
0.1875 0.4375 0
0.21875 0.46875 0
0.21875 0.5 0
0.25 0.46875 0
0.25 0.5 0
0.21875 0.4375 0
0.25 0.4375 0
0.15625 0.40625 0
0.1875 0.40625 0
0.15625 0.375 0
0.1875 0.375 0
0.21875 0.40625 0
0.25 0.40625 0
0.21875 0.375 0
0.25 0.375 0
0.03125 0.34375 0
0.0625 0.34375 0
0.03125 0.3125 0
0.0625 0.3125 0
0.09375 0.34375 0
0.125 0.34375 0
0.09375 0.3125 0
0.125 0.3125 0
0.03125 0.28125 0
0.0625 0.28125 0
0.03125 0.25 0
0.0625 0.25 0
0.09375 0.28125 0
0.125 0.28125 0
0.09375 0.25 0
0.125 0.25 0
0.15625 0.34375 0
0.1875 0.34375 0
0.15625 0.3125 0
0.1875 0.3125 0
0.21875 0.34375 0
0.25 0.34375 0
0.21875 0.3125 0
0.25 0.3125 0
0.15625 0.28125 0
0.1875 0.28125 0
0.15625 0.25 0
0.1875 0.25 0
0.21875 0.28125 0
0.25 0.28125 0
0.21875 0.25 0
0.25 0.25 0
0.28125 0.46875 0
0.28125 0.5 0
0.3125 0.46875 0
0.3125 0.5 0
0.28125 0.4375 0
0.3125 0.4375 0
0.34375 0.46875 0
0.34375 0.5 0
0.375 0.46875 0
0.375 0.5 0
0.34375 0.4375 0
0.375 0.4375 0
0.28125 0.40625 0
0.3125 0.40625 0
0.28125 0.375 0
0.3125 0.375 0
0.34375 0.40625 0
0.375 0.40625 0
0.34375 0.375 0
0.375 0.375 0
0.40625 0.46875 0
0.40625 0.5 0
0.4375 0.46875 0
0.4375 0.5 0
0.40625 0.4375 0
0.4375 0.4375 0
0.46875 0.46875 0
0.46875 0.5 0
0.5 0.46875 0
0.5 0.5 0
0.46875 0.4375 0
0.5 0.4375 0
0.40625 0.40625 0
0.4375 0.40625 0
0.40625 0.375 0
0.4375 0.375 0
0.46875 0.40625 0
0.5 0.40625 0
0.46875 0.375 0
0.5 0.375 0
0.28125 0.34375 0
0.3125 0.34375 0
0.28125 0.3125 0
0.3125 0.3125 0
0.34375 0.34375 0
0.375 0.34375 0
0.34375 0.3125 0
0.375 0.3125 0
0.28125 0.28125 0
0.3125 0.28125 0
0.28125 0.25 0
0.3125 0.25 0
0.34375 0.28125 0
0.375 0.28125 0
0.34375 0.25 0
0.375 0.25 0
0.40625 0.34375 0
0.4375 0.34375 0
0.40625 0.3125 0
0.4375 0.3125 0
0.46875 0.34375 0
0.5 0.34375 0
0.46875 0.3125 0
0.5 0.3125 0
0.40625 0.28125 0
0.4375 0.28125 0
0.40625 0.25 0
0.4375 0.25 0
0.46875 0.28125 0
0.5 0.28125 0
0.46875 0.25 0
0.5 0.25 0
0.03125 0.21875 0
0.0625 0.21875 0
0.03125 0.1875 0
0.0625 0.1875 0
0.09375 0.21875 0
0.125 0.21875 0
0.09375 0.1875 0
0.125 0.1875 0
0.03125 0.15625 0
0.0625 0.15625 0
0.03125 0.125 0
0.0625 0.125 0
0.09375 0.15625 0
0.125 0.15625 0
0.09375 0.125 0
0.125 0.125 0
0.15625 0.21875 0
0.1875 0.21875 0
0.15625 0.1875 0
0.1875 0.1875 0
0.21875 0.21875 0
0.25 0.21875 0
0.21875 0.1875 0
0.25 0.1875 0
0.15625 0.15625 0
0.1875 0.15625 0
0.15625 0.125 0
0.1875 0.125 0
0.21875 0.15625 0
0.25 0.15625 0
0.21875 0.125 0
0.25 0.125 0
0.03125 0.09375 0
0.0625 0.09375 0
0.03125 0.0625 0
0.0625 0.0625 0
0.09375 0.09375 0
0.125 0.09375 0
0.09375 0.0625 0
0.125 0.0625 0
0.03125 0.03125 0
0.0625 0.03125 0
0.03125 0 0
0.0625 0 0
0.09375 0.03125 0
0.125 0.03125 0
0.09375 0 0
0.125 0 0
0.15625 0.09375 0
0.1875 0.09375 0
0.15625 0.0625 0
0.1875 0.0625 0
0.21875 0.09375 0
0.25 0.09375 0
0.21875 0.0625 0
0.25 0.0625 0
0.15625 0.03125 0
0.1875 0.03125 0
0.15625 0 0
0.1875 0 0
0.21875 0.03125 0
0.25 0.03125 0
0.21875 0 0
0.25 0 0
0.28125 0.21875 0
0.3125 0.21875 0
0.28125 0.1875 0
0.3125 0.1875 0
0.34375 0.21875 0
0.375 0.21875 0
0.34375 0.1875 0
0.375 0.1875 0
0.28125 0.15625 0
0.3125 0.15625 0
0.28125 0.125 0
0.3125 0.125 0
0.34375 0.15625 0
0.375 0.15625 0
0.34375 0.125 0
0.375 0.125 0
0.40625 0.21875 0
0.4375 0.21875 0
0.40625 0.1875 0
0.4375 0.1875 0
0.46875 0.21875 0
0.5 0.21875 0
0.46875 0.1875 0
0.5 0.1875 0
0.40625 0.15625 0
0.4375 0.15625 0
0.40625 0.125 0
0.4375 0.125 0
0.46875 0.15625 0
0.5 0.15625 0
0.46875 0.125 0
0.5 0.125 0
0.28125 0.09375 0
0.3125 0.09375 0
0.28125 0.0625 0
0.3125 0.0625 0
0.34375 0.09375 0
0.375 0.09375 0
0.34375 0.0625 0
0.375 0.0625 0
0.28125 0.03125 0
0.3125 0.03125 0
0.28125 0 0
0.3125 0 0
0.34375 0.03125 0
0.375 0.03125 0
0.34375 0 0
0.375 0 0
0.40625 0.09375 0
0.4375 0.09375 0
0.40625 0.0625 0
0.4375 0.0625 0
0.46875 0.09375 0
0.5 0.09375 0
0.46875 0.0625 0
0.5 0.0625 0
0.40625 0.03125 0
0.4375 0.03125 0
0.40625 0 0
0.4375 0 0
0.46875 0.03125 0
0.5 0.03125 0
0.46875 0 0
0.5 0 0
-0.5 -0.03125 0
-0.46875 -0.03125 0
-0.4375 -0.03125 0
-0.5 -0.0625 0
-0.46875 -0.0625 0
-0.4375 -0.0625 0
-0.40625 -0.03125 0
-0.375 -0.03125 0
-0.40625 -0.0625 0
-0.375 -0.0625 0
-0.5 -0.09375 0
-0.46875 -0.09375 0
-0.4375 -0.09375 0
-0.5 -0.125 0
-0.46875 -0.125 0
-0.4375 -0.125 0
-0.40625 -0.09375 0
-0.375 -0.09375 0
-0.40625 -0.125 0
-0.375 -0.125 0
-0.34375 -0.03125 0
-0.3125 -0.03125 0
-0.34375 -0.0625 0
-0.3125 -0.0625 0
-0.28125 -0.03125 0
-0.25 -0.03125 0
-0.28125 -0.0625 0
-0.25 -0.0625 0
-0.34375 -0.09375 0
-0.3125 -0.09375 0
-0.34375 -0.125 0
-0.3125 -0.125 0
-0.28125 -0.09375 0
-0.25 -0.09375 0
-0.28125 -0.125 0
-0.25 -0.125 0
-0.5 -0.15625 0
-0.46875 -0.15625 0
-0.4375 -0.15625 0
-0.5 -0.1875 0
-0.46875 -0.1875 0
-0.4375 -0.1875 0
-0.40625 -0.15625 0
-0.375 -0.15625 0
[...]
POINT_DATA 1089
SCALARS T float
LOOKUP_TABLE default
0
0
0
0
0
0
0
0
0
0
0
0
0
0
0
0
0
0
0
0
0
0
0
0
0
0
0
0
0
0
0
0
0
0
0
0
0
0
0
0
0
0
0
0
0
0
0
0
0
0
0
0
0
0
0
0
0
0
0
0
0
0
0
0
0
0
0
0
0
0
0
0
0
0
0
0
0
0
0
0
0
0
0
0
0
0
0
0
0
0
0
0
0
0
0
0
0
0
0
0
0
0
0
0
0
0
0
0
0
0
0
0
0
0
0
0
0
0
0
0
0
0
0
0
0
0
0
0
0
0
0
0
0
0
0
0
0
0
0
0
0
0
0
0
0
0
0
0
0
0
0
0
0
0
0
0
0
0
0
0
0
0
0
0
0
0
0
0
0
0
0
0
0
0
0
0
0
0
0
0
0
0
0
0
0
0
0
0
0
0
0
0
0
0
0
0
0
0
0
0
0
0
0
0
0
0
0
0
0
0
0
0
0
0
0
0
0.0393432
0
0
0
0
0.0107813
0.263796
0.117791
0.581463
0
0
0
0
0
0
0
0
0
0
0
0
0
0
0
0
0
0
0
0
0
0
0
0
0
0
0
0
0
0
0
0
0.0100991
0.123305
0.270089
0.593952
0.293225
0.370567
0.793225
0.870567
0.723662
0.970647
0.963672
1
1
1
1
1
0.33728
0.193859
0.83728
0.689098
0.0471278
0
0.401875
0.109509
1
0.995239
1
1
0.853465
0.431316
0.998718
0.77582
0
0
0
0
0
0
0
0
0
0
0
0
0
0
0
0
0
0
0
0
0
0
0
0
0
0
0
0
0
0
0
0
0
0
0
0
0
0
0
0
0
0
0
0
0
0
0
0
0
0
0
0
0
0.03835
0
0.14399
0
0.00270942
0.0906536
0.324152
0.0213281
0.0203503
0.502117
0.47958
0.374208
0.816647
0.639194
0.995204
0.980789
0.95923
1
1
0
0
0
0
0
0
0
0
0
0
0
0
0
0
0
0
0
0
0
0
0
0
0
0
0
0
0
0
0
0
0
0
0
0
0
0
0
0
0
0
0.00173155
0
0.267006
0.0560452
0
0
0
0
0.734409
0.282592
0.969135
0.52363
0.00741191
0
0.054495
0
0
0
0
0
0
0
0
0
0
0
0
0
0
0
0
0
0
0
0
0
0
0.188366
0
0.0882491
0
0
0
0
0
0.00552348
0
0
0.688366
1
0.533825
0.945576
1
1
1
1
0.20913
0.550177
0.00803007
0.104601
0.726392
0.701045
0.226392
0.201045
0
0
0
0
0
0
0
0
0.0730899
0
0.277305
0.000203561
0
0
0
0
0
0
0
0
0
0
0
0
0
0
0
4.62791e-05
0
0
4.71717e-05
1.00118e-06
0.999441
0.569884
0.889428
0.412799
0.0704426
0
0.0233715
0
0.461731
0.140519
0.071744
0.000519955
1.20209e-05
0
0
0
0
0
0
0
0
0
0
0
0
0
0
0
0
0
0
0
0
0
0
0
0
0
0
0
0
0
1.09469e-07
8.37972e-10
0
0
0
0
0
0
0
0
0
0
0
0
0
0
0
0
0
0
0
0
0
0
0
0
0
0
0
0
0
0
0
0
0
0
0
0
0
0
0
0
0
0
0
0
0.293424
0.793424
0.410782
0.910782
0
0
0
0
0.450411
0.950411
0.418245
0.918245
0
0
0
0
0
0
0
0
0
0
0
0
0
0
0
0
0
0
0
0
0
0
0
0
0.311592
0.811592
0.137687
0.618044
0
0
0
0
0.0182974
0.314427
0
0.0657727
1
1
1
1
1
1
1
1
1
1
1
1
1
1
1
1
1
1
1
1
1
0.954012
1
1
1
1
1
1
1
1
1
0.999983
1
1
0.980357
1
1
1
1
1
0.787238
0.991108
0.346758
0.696363
1
1
0.896169
0.96719
1
1
1
1
1
0.947957
0.99981
0.766494
1
0.999492
0.920641
0.751996
0.866241
0.435461
0.434693
0.11694
0
0
0
0
0
0
0
0
0
0
0
0
0
0
0
0
0
0
0
0
0
0
0
0
0
0
0
0
0
0
0
0
0
0
0
0
0
0
0
0
0
0
0
0
0
0
0
0
0
0
0
0
0
0
0
0
0
0
0
0
0
0
0
0
0
0
0
0
0
0
0
0
0.0398777
0.205255
0
0
0.396169
0.467191
2.14718e-07
1.65329e-06
0
0
0
0
0
0
0
0
0.420642
0.252504
1.43857e-06
0
0.0682616
0
0
0
0
0
0
0
0
0
0
0
0
0
0
0
0
0
0
0
0
0
0
0
0
0
0
0
0
0
0
0
0
0
0
0
0
0
0
0
0
0
0
0
0.486357
0.0323453
0.599393
0.0993926
0
0
0
0
0.633
0.133
0.593312
0.0933282
0
0
0
0
0
0.00394707
0
0.00390079
0.0232242
0.168737
0.180393
0.575952
0
0
0
0
0.336172
0.836172
0.241293
0.724937
0.475535
0.0275787
0.266685
1.635e-07
0
0
0
0
0.0687113
0
0
0
0
0
0
0
0
0
0
0
0.0623362
0.302811
0
0.00683153
0
0
0
0
0
0
0
0
0.320803
0.236614
0.820803
0.718997
0.0652715
0
0.315848
0.018194
1
0.982382
0.983644
0.912427
0.535967
0.0535849
0.450725
0.0382976
0
0
0
0
0
0
0
0
0
0
0
0
0
0
0
0
0.513065
0.435046
0.0294208
0.0226192
0.165364
0.00290663
2.99745e-05
0
0
0
0
0
0
0
0
0
0
0
0
0
0
0
0
0
0
0
0
0
0
0
0
0
0
0
0
0
0
0
0
0
0
0
0
0
0
0
0
0
0
0
0
0
0
0
0
0
0
0
0
0
0
0
0
0
0
0
0
0
0
0
0
0
0
0
0
0
0
0
0
0
0
0
0
0
0
0
0
0
0
0
0
0
0
0
0
0
0
0
0
0
0
0
0
0
0
0
0
0
0
0
0
0
0
0
0
0
0
0
0
0
0
0
0
0
0
0
0
0
0
0
0
0
0
0
0
0
0
0
0
0
0
0
0
0
0
0
0
0
0
0
0
0
0
0
0
0
0
0
0
0

SCALARS P float
LOOKUP_TABLE default
-0.00958592
-0.0096845
-0.00956304
-0.00966132
-0.00980014
-0.00977817
-0.00959166
-0.00969132
-0.00980647
-0.00993252
-0.00991454
-0.0100802
-0.0100698
-0.00993632
-0.010079
-0.00958197
-0.00968327
-0.00979898
-0.00955858
-0.00966185
-0.00977901
-0.00992813
-0.0100688
-0.00990925
-0.0100509
-0.0102409
-0.0102427
-0.0104101
-0.0104292
-0.0102318
-0.0103902
-0.0105816
-0.010623
-0.010747
-0.0108149
-0.010548
-0.0106976
-0.0102182
-0.0103718
-0.0102012
-0.0103559
-0.0105237
-0.0106667
-0.0105091
-0.0106537
-0.0095244
-0.00962827
-0.00974699
-0.00947275
-0.00957967
-0.00970132
-0.00987981
-0.0100253
-0.00983843
-0.00999044
-0.0094189
-0.00952079
-0.00964233
-0.00934426
-0.00944153
-0.00956351
-0.00978345
-0.00994383
-0.00970955
-0.00988024
-0.0101808
-0.0103423
-0.0101553
-0.0103294
-0.0105039
-0.0106582
-0.0105069
-0.0106797
-0.0101218
-0.0103144
-0.0100749
-0.0102922
-0.0105157
-0.010717
-0.0105266
-0.010769
-0.0108946
-0.0109903
-0.0110127
-0.0111335
-0.0108292
-0.0109332
-0.011088
-0.0112256
-0.0111111
-0.0112526
-0.0109997
-0.0110216
-0.010792
-0.010891
-0.0107812
-0.0108829
-0.0109553
-0.0109787
-0.0109507
-0.0109781
-0.011079
-0.0112106
-0.0109948
-0.0111049
-0.0109963
-0.0109256
-0.0108679
-0.0109499
-0.0107103
-0.0107633
-0.0108158
-0.0106756
-0.0109584
-0.0108957
-0.0109621
-0.0109031
-0.0107949
-0.0106628
-0.0108048
-0.0106727
-0.0107965
-0.0109087
-0.0108381
-0.0109696
-0.0109859
-0.0110205
-0.0110632
-0.0111085
-0.010907
-0.0110687
-0.0110057
-0.0112126
-0.0111879
-0.0112491
-0.0113691
-0.0114519
-0.0110087
-0.0109507
-0.0111012
-0.0110413
-0.0108503
-0.0107127
-0.0109334
-0.010783
-0.0112468
-0.0111823
-0.0114534
-0.0113781
-0.0110636
-0.0109016
-0.0112397
-0.0110597
-0.00923711
-0.00933533
-0.00945969
-0.00910533
-0.00920327
-0.00932813
-0.00961119
-0.00979302
-0.0094829
-0.00967413
-0.00894582
-0.00904359
-0.00916561
-0.00876711
-0.00885958
-0.00897104
-0.00931825
-0.00951283
-0.00911138
-0.00929708
-0.0100069
-0.0102543
-0.00990757
-0.0101895
-0.0105316
-0.0108296
-0.0105206
-0.0108948
-0.00976112
-0.0100767
-0.0095483
-0.00988957
-0.0104704
-0.0109439
-0.0103514
-0.010958
-0.00857575
-0.00865611
-0.00874576
-0.00838597
-0.00844291
-0.00849501
-0.00885832
-0.00901493
-0.00855787
-0.0086539
-0.00821097
-0.00823396
-0.00823173
-0.00808409
-0.00805319
-0.00797756
-0.00821983
-0.00821587
-0.00786457
-0.00771996
-0.00924762
-0.00959434
-0.00882745
-0.00912369
-0.0101245
-0.0109113
-0.00966644
-0.00813321
-0.00827407
-0.00842987
-0.00758726
-0.00747123
-0.00825948
0.00578695
-0.00134045
0.0242592
-0.0111337
-0.0114078
-0.0112989
-0.0116733
-0.0116217
-0.0117358
-0.0119701
-0.0121236
-0.0114911
-0.0120182
-0.0117345
-0.0125113
-0.0124553
-0.012677
-0.0131559
-0.0134611
-0.0117371
-0.0116367
-0.0121144
-0.0119687
-0.011459
-0.0112393
-0.0117246
-0.0114341
-0.012636
-0.0123995
-0.0133576
-0.0129869
-0.0120363
-0.0116227
-0.0124318
-0.0118138
-0.011284
-0.0045735
0.0054331
0.0258517
0.00639918
0.0114371
0.0392494
0.0445758
0.033284
0.0490785
0.0465173
0.0495679
0.0514142
0.0516751
0.0501541
0.0504253
0.00911386
-0.000503846
0.0421244
0.0317975
-0.00980158
-0.0120165
0.0127511
-0.00530305
0.0515376
0.0508211
0.0502704
0.0497845
0.0409042
0.0143213
0.0488193
0.0341481
-0.0105348
-0.0105617
-0.0103531
-0.0103593
-0.0105151
-0.0103444
-0.0101754
-0.0101663
-0.0100106
-0.00999068
-0.0101741
-0.010014
-0.0105082
-0.0103391
-0.0105142
-0.0103338
-0.0101666
-0.0100018
-0.0101425
-0.00995614
-0.00986091
-0.00983511
-0.00974589
-0.00970889
-0.00986235
-0.00976567
-0.00964667
-0.0096029
-0.00956078
-0.00951478
-0.00968132
-0.00960077
-0.00983404
-0.00976638
-0.00974375
-0.00975847
-0.00970779
-0.00963809
-0.00978734
-0.00975024
-0.0105454
-0.0103494
-0.0105953
-0.0103619
-0.0101362
-0.00992476
-0.0100794
-0.0097159
-0.0107062
-0.0104767
-0.0108544
-0.0106517
-0.010216
-0.00511345
-0.010458
0.00737053
-0.00960898
-0.00937905
0.00126871
0.0286418
-0.00747353
-0.00758589
0.0493782
0.0463512
0.0348026
0.0869776
0.0663153
0.108337
0.106503
0.103748
0.109127
0.109359
-0.00946543
-0.00943589
-0.009393
-0.0093793
-0.00947286
-0.00937308
-0.00937442
-0.00935907
-0.00937084
-0.00935805
-0.00936561
-0.00935982
-0.00945123
-0.00931023
-0.00941484
-0.00915564
-0.00933503
-0.00932559
-0.00925699
-0.00925435
-0.00939648
-0.00938109
-0.00944148
-0.00942346
-0.00939202
-0.00944133
-0.00950491
-0.00948438
-0.00958592
-0.00956386
-0.0095082
-0.00959166
-0.00936954
-0.0094244
-0.00932635
-0.00939147
-0.00949557
-0.00958197
-0.00946875
-0.00955858
-0.00910912
-0.00897358
0.021394
-0.00263821
-0.00924074
-0.00922104
-0.0089043
-0.009039
0.0763174
0.0232268
0.105132
0.0515198
-0.00833302
-0.00918568
-0.00354321
-0.00936326
-0.00929992
-0.00935949
-0.00919388
-0.00928732
-0.00943492
-0.0095244
-0.00937736
-0.00947275
-0.00921677
-0.00927121
-0.00924036
-0.0092376
-0.00933646
-0.0094189
-0.00927478
-0.00934426
-0.0110026
-0.010802
-0.0111425
-0.0109188
-0.0106273
0.0126982
-0.0107675
0.000364575
-0.0112184
-0.0108995
-0.011232
-0.0107884
-0.0106693
-0.00976698
-0.0104543
-0.0101947
0.0726385
0.10933
0.0545432
0.103595
0.109291
0.10941
0.109473
0.109451
0.0155482
0.0570049
-0.00878103
0.00358932
0.0778445
0.0747207
0.0187602
0.0158997
-0.011177
-0.0105896
-0.0109849
-0.0102383
-0.0101931
-0.00990137
-0.00984471
-0.00959654
-0.00636468
-0.00965618
0.00575602
-0.00864076
-0.00939167
-0.00930368
-0.00873856
-0.00897689
-0.00957233
-0.00917281
-0.00928483
-0.00898721
-0.00860302
-0.00821734
-0.00836719
-0.0079657
-0.00913064
-0.00901927
-0.0090533
-0.00916061
-0.00804727
-0.00753847
-0.00766617
-0.00689706
0.109347
0.0575466
0.0962806
0.0394344
-0.00166524
-0.00920722
-0.00664208
-0.00903662
0.0460549
0.00782172
0.000427271
-0.00822479
-0.00875409
-0.00874731
-0.00840487
-0.00846782
-0.00912118
-0.00912434
-0.00898025
-0.00898868
-0.00916572
-0.00923711
-0.00903264
-0.00910533
-0.00876185
-0.0088054
-0.00853211
-0.00860872
-0.00886621
-0.00894582
-0.00868385
-0.00876711
-0.00807366
-0.00794903
-0.00784209
-0.00753384
-0.00805294
-0.00817744
-0.00769153
-0.00791589
-0.0075578
-0.00691457
-0.00702536
-0.00607816
-0.00718095
-0.00761097
-0.00668001
-0.00748715
-0.00828419
-0.00840064
-0.00805649
-0.00821081
-0.00849164
-0.00857575
-0.00830978
-0.00838597
-0.00781691
-0.0080357
-0.0077294
-0.00797175
-0.00814705
-0.00821097
-0.00805906
-0.00808409
-0.00799703
-0.00791227
-0.00775851
-0.00803184
-0.00786171
-0.00762296
-0.00753011
-0.00721878
-0.00728482
-0.00682373
-0.00814356
-0.00789393
-0.00759331
-0.00823089
-0.00796877
-0.0076623
-0.00718852
-0.00664586
-0.00726045
-0.00672872
-0.00681727
-0.00630477
-0.00616087
-0.00528416
0.00891283
0.0353512
0.0152991
0.0407103
-0.00584049
-0.00477707
-0.00595144
-0.00492556
0.0173453
0.04224
0.0157597
0.0407539
-0.00833769
-0.00810203
-0.00783156
-0.00845261
-0.00827516
-0.0080746
-0.00749244
-0.00705563
-0.00784113
-0.00756049
-0.00858697
-0.00847331
-0.00835079
-0.00873542
-0.00868091
-0.00863055
-0.00822515
-0.00809676
-0.00859732
-0.00859319
-0.00646117
-0.00569181
-0.00724346
-0.00688435
0.0102509
0.0359459
0.000481888
0.0263687
-0.00800948
-0.00797982
-0.0086624
-0.00884202
-0.00707929
0.00937064
-0.00927609
-0.00608882
0.0475017
0.048543
0.0466883
0.0478321
0.0491879
0.0494536
0.0485511
0.0488277
0.0463145
0.0475579
0.0463955
0.0477138
0.0483193
0.0486009
0.0485138
0.0487981
0.0493117
0.048782
0.0486811
0.0481141
0.0478526
0.043592
0.0471213
0.0456688
0.0484318
0.047817
0.0485958
0.0479228
0.0467314
0.0452231
0.0467749
0.0452069
0.0469828
0.0483742
0.0470939
0.0495775
0.0491811
0.0494577
0.0503502
0.0506015
0.0373602
0.0507333
0.0106412
0.0332772
0.051996
0.0522142
0.0475994
0.0527071
0.0491899
0.0484254
0.0502327
0.0493421
0.0471366
0.0425637
0.0478154
0.0333761
0.0517538
0.0507276
0.0488862
0.0364851
0.041163
0.0155841
0.0156309
-0.00310886
-0.00888615
-0.00888242
-0.00889391
-0.00903351
-0.00906772
-0.00912367
-0.00893698
-0.00903029
-0.0092167
-0.00936405
-0.00916724
-0.00922844
-0.00931462
-0.00928564
-0.0093643
-0.00946873
-0.0094386
-0.00961421
-0.00960864
-0.00979361
-0.00921414
-0.0095351
-0.00959522
-0.00994648
-0.0101004
-0.0109973
-0.0104771
-0.0112394
-0.00986159
-0.0102046
-0.0100363
-0.0103498
-0.0106681
-0.0112672
-0.0107419
-0.0112136
-0.00938428
-0.00947323
-0.00958702
-0.00946359
-0.00955799
-0.00967551
-0.00973226
-0.00991472
-0.00982018
-0.00999484
-0.00952294
-0.00961975
-0.00973761
-0.00956386
-0.00966132
-0.00977817
-0.00987848
-0.0100432
-0.00991454
-0.0100698
-0.0101413
-0.0104173
-0.0102024
-0.0104433
-0.0107418
-0.0111086
-0.0107127
-0.0110016
-0.0102319
-0.0104423
-0.0102427
-0.0104292
-0.0106683
-0.0109001
-0.010623
-0.0108149
-0.00960509
0.000670104
-0.012343
-0.0135854
0.013548
0.0184364
-0.0145459
-0.0147809
-0.0120097
-0.0128031
-0.0117431
-0.0122588
-0.0134294
-0.0136062
-0.0126323
-0.0127352
0.0151416
0.00384512
-0.0143041
-0.0133229
-0.00751897
-0.0107282
-0.0120647
-0.0110214
-0.0132987
-0.0126322
-0.0125539
-0.0121419
-0.011808
-0.0110806
-0.0116024
-0.0110687
-0.0114914
-0.011846
-0.0112864
-0.011536
-0.0120951
-0.0121654
-0.0117038
-0.011751
-0.0111192
-0.0113041
-0.0109903
-0.0111335
-0.0114253
-0.0114601
-0.0112256
-0.0112526
-0.0120458
-0.0117647
-0.0116706
-0.0114778
-0.0113888
-0.0109945
-0.0112106
-0.010913
-0.0114031
-0.011263
-0.0112106
-0.0111049
-0.0110634
-0.0108319
-0.0109499
-0.0107633
0.017618
-0.00619585
0.0235587
-0.00229316
-0.00810371
-0.00882909
-0.00749103
-0.00854646
0.025237
-0.000107863
0.0233744
-0.00193965
-0.00696298
-0.00802919
-0.00683819
-0.00770058
-0.00968763
-0.00899597
-0.00990941
-0.00959388
-0.00495547
0.0216946
0.0229667
0.0956985
-0.00912272
-0.00991141
-0.00841802
-0.00881156
0.0531788
0.145771
0.037035
0.125925
0.0175321
-0.00516042
0.0065662
-0.00699034
-0.00697637
-0.00755643
-0.00740669
-0.0077216
-0.00447121
-0.00790001
-0.00908627
-0.00870231
-0.00799184
-0.00807501
-0.00855057
-0.00846986
-0.00791073
-0.00798142
-0.00789237
-0.00788442
0.00448437
0.0491173
-0.00743076
-0.0055149
-0.00812191
-0.00808826
-0.0084101
-0.00833328
-0.00787932
-0.00769025
-0.00820017
-0.00811927
0.0487528
0.0335555
0.139397
0.119421
0.00407774
-0.00715173
0.0477254
-0.00492864
0.174491
0.170475
0.171414
0.158251
0.0879921
-0.000298608
0.0729095
-0.00322996
-0.00759143
-0.00790635
-0.00816436
-0.00817731
-0.00800355
-0.00799703
-0.0081463
-0.00803184
-0.00909992
-0.00862705
-0.00928782
-0.00878126
-0.00838255
-0.00814356
-0.00848647
-0.00823089
0.0865849
0.0711074
-0.00140875
-0.00372545
0.0208158
-0.00903325
-0.00883879
-0.00899317
-0.00774709
-0.00815838
-0.00818956
-0.00841944
-0.00866624
-0.00883313
-0.00869112
-0.00880577
-0.00912282
-0.00881166
-0.0089007
-0.00877441
-0.00856132
-0.00833769
-0.00861284
-0.00845261
-0.00883209
-0.0087828
-0.00883568
-0.00882849
-0.00868831
-0.00858697
-0.00878551
-0.00873542
-0.00987411
-0.00935659
-0.0102772
-0.00976923
-0.00905668
-0.00886813
-0.00942792
-0.00919135
-0.0104919
-0.0100395
-0.0105966
-0.0102053
-0.00970191
-0.00945095
-0.00989201
-0.00964605
-0.00873675
-0.00863077
-0.00901972
-0.0088902
-0.00852671
-0.00846967
-0.00878816
-0.00873135
-0.00926183
-0.00911941
-0.00945353
-0.00930543
-0.0090133
-0.00894756
-0.00919451
-0.00911988
-0.0106228
-0.0102947
-0.0106163
-0.0103407
-0.0100163
-0.00978701
-0.0100957
-0.00988565
-0.0105911
-0.0103577
-0.0105617
-0.0103593
-0.010142
-0.00995102
-0.0101663
-0.00999068
-0.00960085
-0.00945381
-0.00970955
-0.00956713
-0.00934084
-0.00925962
-0.00945433
-0.00936891
-0.00978601
-0.00965067
-0.00983511
-0.00970889
-0.00954026
-0.0094528
-0.0096029
-0.00951478
-0.00849194
-0.00860268
-0.00873049
-0.00878306
-0.00875883
-0.00884477
-0.00886772
-0.00892567
-0.00892385
-0.00893808
-0.00908026
-0.00907136
-0.00897985
-0.00901784
-0.00908752
-0.00911166
-0.00888446
-0.0089002
-0.00896414
-0.00899183
-0.00889428
-0.00888615
-0.00901075
-0.00903351
-0.0090525
-0.00908675
-0.00914235
-0.00918005
-0.00912234
-0.00916724
-0.00922613
-0.00928564
-0.00920803
-0.00918319
-0.00930833
-0.00927219
-0.00918278
-0.0091968
-0.00926145
-0.00926862
-0.00938404
-0.00933816
-0.00943589
-0.0093793
-0.00932091
-0.00932324
-0.00935907
-0.00935805
-0.00922381
-0.00926313
-0.00929302
-0.00933323
-0.00931565
-0.00938428
-0.00938961
-0.00946359
-0.00934613
-0.0093871
-0.00938109
-0.00942346
-0.00944592
-0.00952294
-0.00948438
-0.00956304

SCALARS U float
LOOKUP_TABLE default
0.0209747
0.0213764
0.0206557
0.0210939
0.0217635
0.0215322
0.0213268
0.0216721
0.022002
0.0221294
0.0219559
0.0224619
0.0223545
0.0223097
0.0225819
0.0216941
0.0219779
0.0222507
0.0220515
0.0222765
0.0224992
0.0225059
0.022729
0.0227128
0.0229016
0.0227394
0.0227066
0.022934
0.0229825
0.0227969
0.0229275
0.0230114
0.0231421
0.0229351
0.0231375
0.0229424
0.0228112
0.0228972
0.0229825
0.0230416
0.0231018
0.0229535
0.022781
0.023048
0.0228476
0.022358
0.0225378
0.0227242
0.0225864
0.0227351
0.0228991
0.0229114
0.0230836
0.0230742
0.0232462
0.0226896
0.0228363
0.0229929
0.0227204
0.0228514
0.0229898
0.023166
0.0233496
0.0231543
0.0233486
0.0232155
0.0232729
0.0233902
0.0234686
0.0232162
0.0230051
0.0234346
0.0232365
0.0235223
0.0236448
0.0235573
0.0237423
0.0236633
0.0235118
0.0238471
0.0237909
0.0226782
0.0229286
0.0222271
0.0224835
0.0225138
0.0220448
0.0216048
0.021824
0.0208707
0.0210268
0.0214273
0.0207119
0.0224459
0.0219455
0.0224777
0.0219338
0.0213023
0.0205645
0.0212378
0.0204411
0.0201009
0.0201864
0.0193811
0.0194124
0.0199652
0.0192614
0.0187822
0.0187917
0.018344
0.0183612
0.0186654
0.0182214
0.0197979
0.0190753
0.0196165
0.018845
0.0184633
0.0180116
0.0182013
0.0177404
0.0226076
0.0220128
0.0228265
0.0221807
0.0212414
0.0203526
0.0213151
0.0203013
0.0231173
0.0224322
0.0234623
0.0227689
0.0214592
0.020285
0.0216788
0.0202945
0.0194356
0.0185904
0.0192563
0.0183108
0.0179066
0.0174456
0.0175775
0.0171212
0.0190698
0.0179942
0.0188439
0.0175872
0.0172094
0.0167832
0.0167343
0.0163381
0.0227085
0.0227802
0.0228697
0.0226302
0.0226052
0.0226107
0.0230027
0.0231916
0.0226792
0.0228334
0.0224487
0.0223011
0.0221934
0.0221101
0.0218446
0.0216157
0.022164
0.0222511
0.0214705
0.0214812
0.0234298
0.0236883
0.0230844
0.0234374
0.023924
0.0240534
0.0239117
0.0244457
0.0225086
0.0230394
0.0217959
0.0227273
0.0240278
0.0254518
0.0247607
0.0277939
0.0216038
0.0212447
0.0209085
0.0209407
0.0205335
0.0201239
0.0206536
0.0206121
0.0197801
0.0196986
0.0201967
0.0197772
0.0193269
0.0194674
0.0190506
0.0185766
0.0189032
0.0187094
0.0180591
0.0175843
0.0210746
0.0226539
0.0202704
0.0223218
0.0260831
0.0305482
0.0262541
0.0293805
0.0190489
0.0206765
0.0171618
0.0170716
0.0229782
0.0216405
0.0159442
0.0112787
0.0239019
0.0232792
0.0247227
0.0243119
0.022061
0.0203556
0.0228827
0.0205636
0.026633
0.0266244
0.0301706
0.0301329
0.0247414
0.0211562
0.0271361
0.0217921
0.0185178
0.0169695
0.0179778
0.015877
0.0160225
0.01568
0.014795
0.0146719
0.0170194
0.0137584
0.0157276
0.0107912
0.0123754
0.012765
0.00850628
0.00934459
0.0325781
0.030201
0.0276621
0.0222138
0.0255657
0.0206696
0.0185157
0.0181966
0.0159587
0.0119012
0.00677273
0.00772887
0.0128616
0.0172904
0.0124402
0.0181446
0.0157048
0.010481
0.0186266
0.0166393
0.00612594
0.00570028
0.0112013
0.00716086
0.0224069
0.0254151
0.0241211
0.0298832
0.0233824
0.0173785
0.0333229
0.031018
0.0180753
0.0181108
0.0179584
0.0179998
0.0179511
0.0178529
0.0179619
0.0179819
0.0180336
0.0180034
0.0179074
0.0180639
0.0177492
0.0176882
0.0174954
0.0174872
0.0178155
0.0180972
0.0177047
0.0181743
0.0181365
0.0180285
0.018171
0.0180102
0.0183027
0.0184135
0.0181034
0.0179426
0.0180585
0.017907
0.0182906
0.0181623
0.01857
0.0187769
0.0190593
0.0193858
0.018475
0.018103
0.0186532
0.0176718
0.0172385
0.0173055
0.0169558
0.0170786
0.0176271
0.0182762
0.0173964
0.0179282
0.0167216
0.0170076
0.016377
0.0167353
0.01755
0.0184054
0.017381
0.0180085
0.0194635
0.0198709
0.0183227
0.0184397
0.0189135
0.017335
0.0190243
0.0196997
0.0184537
0.0181845
0.0179504
0.0182543
0.0196039
0.0222125
0.0197561
0.0222327
0.018156
0.0179752
0.0184666
0.0181909
0.0182739
0.0187567
0.0188747
0.0185124
0.0192891
0.0188897
0.0193131
0.019769
0.0181851
0.0190063
0.0175748
0.0190851
0.0198316
0.0203222
0.0204379
0.020928
0.0197197
0.0193099
0.0201451
0.0197497
0.0202031
0.0205975
0.020564
0.0201978
0.0209747
0.0206385
0.02097
0.0213268
0.0207468
0.0210904
0.0213178
0.0215857
0.0214012
0.0216941
0.0218246
0.0220515
0.0170755
0.0194873
0.0209991
0.0227535
0.0212398
0.0215049
0.0228436
0.0223135
0.0236587
0.022629
0.0233215
0.0216614