# vtk DataFile Version 2.0
Gerris simulation version 1.3.2 (131206-155120)
ASCII
DATASET UNSTRUCTURED_GRID

POINTS 1089 float
-0.5 0.46875 0
-0.46875 0.46875 0
-0.5 0.5 0
-0.46875 0.5 0
-0.4375 0.46875 0
-0.4375 0.5 0
-0.5 0.4375 0
-0.46875 0.4375 0
-0.4375 0.4375 0
-0.40625 0.46875 0
-0.40625 0.5 0
-0.375 0.46875 0
-0.375 0.5 0
-0.40625 0.4375 0
-0.375 0.4375 0
-0.5 0.40625 0
-0.46875 0.40625 0
-0.4375 0.40625 0
-0.5 0.375 0
-0.46875 0.375 0
-0.4375 0.375 0
-0.40625 0.40625 0
-0.375 0.40625 0
-0.40625 0.375 0
-0.375 0.375 0
-0.34375 0.46875 0
-0.34375 0.5 0
-0.3125 0.46875 0
-0.3125 0.5 0
-0.34375 0.4375 0
-0.3125 0.4375 0
-0.28125 0.46875 0
-0.28125 0.5 0
-0.25 0.46875 0
-0.25 0.5 0
-0.28125 0.4375 0
-0.25 0.4375 0
-0.34375 0.40625 0
-0.3125 0.40625 0
-0.34375 0.375 0
-0.3125 0.375 0
-0.28125 0.40625 0
-0.25 0.40625 0
-0.28125 0.375 0
-0.25 0.375 0
-0.5 0.34375 0
-0.46875 0.34375 0
-0.4375 0.34375 0
-0.5 0.3125 0
-0.46875 0.3125 0
-0.4375 0.3125 0
-0.40625 0.34375 0
-0.375 0.34375 0
-0.40625 0.3125 0
-0.375 0.3125 0
-0.5 0.28125 0
-0.46875 0.28125 0
-0.4375 0.28125 0
-0.5 0.25 0
-0.46875 0.25 0
-0.4375 0.25 0
-0.40625 0.28125 0
-0.375 0.28125 0
-0.40625 0.25 0
-0.375 0.25 0
-0.34375 0.34375 0
-0.3125 0.34375 0
-0.34375 0.3125 0
-0.3125 0.3125 0
-0.28125 0.34375 0
-0.25 0.34375 0
-0.28125 0.3125 0
-0.25 0.3125 0
-0.34375 0.28125 0
-0.3125 0.28125 0
-0.34375 0.25 0
-0.3125 0.25 0
-0.28125 0.28125 0
-0.25 0.28125 0
-0.28125 0.25 0
-0.25 0.25 0
-0.21875 0.46875 0
-0.21875 0.5 0
-0.1875 0.46875 0
-0.1875 0.5 0
-0.21875 0.4375 0
-0.1875 0.4375 0
-0.15625 0.46875 0
-0.15625 0.5 0
-0.125 0.46875 0
-0.125 0.5 0
-0.15625 0.4375 0
-0.125 0.4375 0
-0.21875 0.40625 0
-0.1875 0.40625 0
-0.21875 0.375 0
-0.1875 0.375 0
-0.15625 0.40625 0
-0.125 0.40625 0
-0.15625 0.375 0
-0.125 0.375 0
-0.09375 0.46875 0
-0.09375 0.5 0
-0.0625 0.46875 0
-0.0625 0.5 0
-0.09375 0.4375 0
-0.0625 0.4375 0
-0.03125 0.46875 0
-0.03125 0.5 0
0 0.46875 0
0 0.5 0
-0.03125 0.4375 0
0 0.4375 0
-0.09375 0.40625 0
-0.0625 0.40625 0
-0.09375 0.375 0
-0.0625 0.375 0
-0.03125 0.40625 0
0 0.40625 0
-0.03125 0.375 0
0 0.375 0
-0.21875 0.34375 0
-0.1875 0.34375 0
-0.21875 0.3125 0
-0.1875 0.3125 0
-0.15625 0.34375 0
-0.125 0.34375 0
-0.15625 0.3125 0
-0.125 0.3125 0
-0.21875 0.28125 0
-0.1875 0.28125 0
-0.21875 0.25 0
-0.1875 0.25 0
-0.15625 0.28125 0
-0.125 0.28125 0
-0.15625 0.25 0
-0.125 0.25 0
-0.09375 0.34375 0
-0.0625 0.34375 0
-0.09375 0.3125 0
-0.0625 0.3125 0
-0.03125 0.34375 0
0 0.34375 0
-0.03125 0.3125 0
0 0.3125 0
-0.09375 0.28125 0
-0.0625 0.28125 0
-0.09375 0.25 0
-0.0625 0.25 0
-0.03125 0.28125 0
0 0.28125 0
-0.03125 0.25 0
0 0.25 0
-0.5 0.21875 0
-0.46875 0.21875 0
-0.4375 0.21875 0
-0.5 0.1875 0
-0.46875 0.1875 0
-0.4375 0.1875 0
-0.40625 0.21875 0
-0.375 0.21875 0
-0.40625 0.1875 0
-0.375 0.1875 0
-0.5 0.15625 0
-0.46875 0.15625 0
-0.4375 0.15625 0
-0.5 0.125 0
-0.46875 0.125 0
-0.4375 0.125 0
-0.40625 0.15625 0
-0.375 0.15625 0
-0.40625 0.125 0
-0.375 0.125 0
-0.34375 0.21875 0
-0.3125 0.21875 0
-0.34375 0.1875 0
-0.3125 0.1875 0
-0.28125 0.21875 0
-0.25 0.21875 0
-0.28125 0.1875 0
-0.25 0.1875 0
-0.34375 0.15625 0
-0.3125 0.15625 0
-0.34375 0.125 0
-0.3125 0.125 0
-0.28125 0.15625 0
-0.25 0.15625 0
-0.28125 0.125 0
-0.25 0.125 0
-0.5 0.09375 0
-0.46875 0.09375 0
-0.4375 0.09375 0
-0.5 0.0625 0
-0.46875 0.0625 0
-0.4375 0.0625 0
-0.40625 0.09375 0
-0.375 0.09375 0
-0.40625 0.0625 0
-0.375 0.0625 0
-0.5 0.03125 0
-0.46875 0.03125 0
-0.4375 0.03125 0
-0.5 0 0
-0.46875 0 0
-0.4375 0 0
-0.40625 0.03125 0
-0.375 0.03125 0
-0.40625 0 0
-0.375 0 0
-0.34375 0.09375 0
-0.3125 0.09375 0
-0.34375 0.0625 0
-0.3125 0.0625 0
-0.28125 0.09375 0
-0.25 0.09375 0
-0.28125 0.0625 0
-0.25 0.0625 0
-0.34375 0.03125 0
-0.3125 0.03125 0
-0.34375 0 0
-0.3125 0 0
-0.28125 0.03125 0
-0.25 0.03125 0
-0.28125 0 0
-0.25 0 0
-0.21875 0.21875 0
-0.1875 0.21875 0
-0.21875 0.1875 0
-0.1875 0.1875 0
-0.15625 0.21875 0
-0.125 0.21875 0
-0.15625 0.1875 0
-0.125 0.1875 0
-0.21875 0.15625 0
-0.1875 0.15625 0
-0.21875 0.125 0
-0.1875 0.125 0
-0.15625 0.15625 0
-0.125 0.15625 0
-0.15625 0.125 0
-0.125 0.125 0
-0.09375 0.21875 0
-0.0625 0.21875 0
-0.09375 0.1875 0
-0.0625 0.1875 0
-0.03125 0.21875 0
0 0.21875 0
-0.03125 0.1875 0
0 0.1875 0
-0.09375 0.15625 0
-0.0625 0.15625 0
-0.09375 0.125 0
-0.0625 0.125 0
-0.03125 0.15625 0
0 0.15625 0
-0.03125 0.125 0
0 0.125 0
-0.21875 0.09375 0
-0.1875 0.09375 0
-0.21875 0.0625 0
-0.1875 0.0625 0
-0.15625 0.09375 0
-0.125 0.09375 0
-0.15625 0.0625 0
-0.125 0.0625 0
-0.21875 0.03125 0
-0.1875 0.03125 0
-0.21875 0 0
-0.1875 0 0
-0.15625 0.03125 0
-0.125 0.03125 0
-0.15625 0 0
-0.125 0 0
-0.09375 0.09375 0
-0.0625 0.09375 0
-0.09375 0.0625 0
-0.0625 0.0625 0
-0.03125 0.09375 0
0 0.09375 0
-0.03125 0.0625 0
0 0.0625 0
-0.09375 0.03125 0
-0.0625 0.03125 0
-0.09375 0 0
-0.0625 0 0
-0.03125 0.03125 0
0 0.03125 0
-0.03125 0 0
0 0 0
0.03125 0.46875 0
0.03125 0.5 0
0.0625 0.46875 0
0.0625 0.5 0
0.03125 0.4375 0
0.0625 0.4375 0
0.09375 0.46875 0
0.09375 0.5 0
0.125 0.46875 0
0.125 0.5 0
0.09375 0.4375 0
0.125 0.4375 0
0.03125 0.40625 0
0.0625 0.40625 0
0.03125 0.375 0
0.0625 0.375 0
0.09375 0.40625 0
0.125 0.40625 0
0.09375 0.375 0
0.125 0.375 0
0.15625 0.46875 0
0.15625 0.5 0
0.1875 0.46875 0
0.1875 0.5 0
0.15625 0.4375 0
0.1875 0.4375 0
0.21875 0.46875 0
0.21875 0.5 0
0.25 0.46875 0
0.25 0.5 0
0.21875 0.4375 0
0.25 0.4375 0
0.15625 0.40625 0
0.1875 0.40625 0
0.15625 0.375 0
0.1875 0.375 0
0.21875 0.40625 0
0.25 0.40625 0
0.21875 0.375 0
0.25 0.375 0
0.03125 0.34375 0
0.0625 0.34375 0
0.03125 0.3125 0
0.0625 0.3125 0
0.09375 0.34375 0
0.125 0.34375 0
0.09375 0.3125 0
0.125 0.3125 0
0.03125 0.28125 0
0.0625 0.28125 0
0.03125 0.25 0
0.0625 0.25 0
0.09375 0.28125 0
0.125 0.28125 0
0.09375 0.25 0
0.125 0.25 0
0.15625 0.34375 0
0.1875 0.34375 0
0.15625 0.3125 0
0.1875 0.3125 0
0.21875 0.34375 0
0.25 0.34375 0
0.21875 0.3125 0
0.25 0.3125 0
0.15625 0.28125 0
0.1875 0.28125 0
0.15625 0.25 0
0.1875 0.25 0
0.21875 0.28125 0
0.25 0.28125 0
0.21875 0.25 0
0.25 0.25 0
0.28125 0.46875 0
0.28125 0.5 0
0.3125 0.46875 0
0.3125 0.5 0
0.28125 0.4375 0
0.3125 0.4375 0
0.34375 0.46875 0
0.34375 0.5 0
0.375 0.46875 0
0.375 0.5 0
0.34375 0.4375 0
0.375 0.4375 0
0.28125 0.40625 0
0.3125 0.40625 0
0.28125 0.375 0
0.3125 0.375 0
0.34375 0.40625 0
0.375 0.40625 0
0.34375 0.375 0
0.375 0.375 0
0.40625 0.46875 0
0.40625 0.5 0
0.4375 0.46875 0
0.4375 0.5 0
0.40625 0.4375 0
0.4375 0.4375 0
0.46875 0.46875 0
0.46875 0.5 0
0.5 0.46875 0
0.5 0.5 0
0.46875 0.4375 0
0.5 0.4375 0
0.40625 0.40625 0
0.4375 0.40625 0
0.40625 0.375 0
0.4375 0.375 0
0.46875 0.40625 0
0.5 0.40625 0
0.46875 0.375 0
0.5 0.375 0
0.28125 0.34375 0
0.3125 0.34375 0
0.28125 0.3125 0
0.3125 0.3125 0
0.34375 0.34375 0
0.375 0.34375 0
0.34375 0.3125 0
0.375 0.3125 0
0.28125 0.28125 0
0.3125 0.28125 0
0.28125 0.25 0
0.3125 0.25 0
0.34375 0.28125 0
0.375 0.28125 0
0.34375 0.25 0
0.375 0.25 0
0.40625 0.34375 0
0.4375 0.34375 0
0.40625 0.3125 0
0.4375 0.3125 0
0.46875 0.34375 0
0.5 0.34375 0
0.46875 0.3125 0
0.5 0.3125 0
0.40625 0.28125 0
0.4375 0.28125 0
0.40625 0.25 0
0.4375 0.25 0
0.46875 0.28125 0
0.5 0.28125 0
0.46875 0.25 0
0.5 0.25 0
0.03125 0.21875 0
0.0625 0.21875 0
0.03125 0.1875 0
0.0625 0.1875 0
0.09375 0.21875 0
0.125 0.21875 0
0.09375 0.1875 0
0.125 0.1875 0
0.03125 0.15625 0
0.0625 0.15625 0
0.03125 0.125 0
0.0625 0.125 0
0.09375 0.15625 0
0.125 0.15625 0
0.09375 0.125 0
0.125 0.125 0
0.15625 0.21875 0
0.1875 0.21875 0
0.15625 0.1875 0
0.1875 0.1875 0
0.21875 0.21875 0
0.25 0.21875 0
0.21875 0.1875 0
0.25 0.1875 0
0.15625 0.15625 0
0.1875 0.15625 0
0.15625 0.125 0
0.1875 0.125 0
0.21875 0.15625 0
0.25 0.15625 0
0.21875 0.125 0
0.25 0.125 0
0.03125 0.09375 0
0.0625 0.09375 0
0.03125 0.0625 0
0.0625 0.0625 0
0.09375 0.09375 0
0.125 0.09375 0
0.09375 0.0625 0
0.125 0.0625 0
0.03125 0.03125 0
0.0625 0.03125 0
0.03125 0 0
0.0625 0 0
0.09375 0.03125 0
0.125 0.03125 0
0.09375 0 0
0.125 0 0
0.15625 0.09375 0
0.1875 0.09375 0
0.15625 0.0625 0
0.1875 0.0625 0
0.21875 0.09375 0
0.25 0.09375 0
0.21875 0.0625 0
0.25 0.0625 0
0.15625 0.03125 0
0.1875 0.03125 0
0.15625 0 0
0.1875 0 0
0.21875 0.03125 0
0.25 0.03125 0
0.21875 0 0
0.25 0 0
0.28125 0.21875 0
0.3125 0.21875 0
0.28125 0.1875 0
0.3125 0.1875 0
0.34375 0.21875 0
0.375 0.21875 0
0.34375 0.1875 0
0.375 0.1875 0
0.28125 0.15625 0
0.3125 0.15625 0
0.28125 0.125 0
0.3125 0.125 0
0.34375 0.15625 0
0.375 0.15625 0
0.34375 0.125 0
0.375 0.125 0
0.40625 0.21875 0
0.4375 0.21875 0
0.40625 0.1875 0
0.4375 0.1875 0
0.46875 0.21875 0
0.5 0.21875 0
0.46875 0.1875 0
0.5 0.1875 0
0.40625 0.15625 0
0.4375 0.15625 0
0.40625 0.125 0
0.4375 0.125 0
0.46875 0.15625 0
0.5 0.15625 0
0.46875 0.125 0
0.5 0.125 0
0.28125 0.09375 0
0.3125 0.09375 0
0.28125 0.0625 0
0.3125 0.0625 0
0.34375 0.09375 0
0.375 0.09375 0
0.34375 0.0625 0
0.375 0.0625 0
0.28125 0.03125 0
0.3125 0.03125 0
0.28125 0 0
0.3125 0 0
0.34375 0.03125 0
0.375 0.03125 0
0.34375 0 0
0.375 0 0
0.40625 0.09375 0
0.4375 0.09375 0
0.40625 0.0625 0
0.4375 0.0625 0
0.46875 0.09375 0
0.5 0.09375 0
0.46875 0.0625 0
0.5 0.0625 0
0.40625 0.03125 0
0.4375 0.03125 0
0.40625 0 0
0.4375 0 0
0.46875 0.03125 0
0.5 0.03125 0
0.46875 0 0
0.5 0 0
-0.5 -0.03125 0
-0.46875 -0.03125 0
-0.4375 -0.03125 0
-0.5 -0.0625 0
-0.46875 -0.0625 0
-0.4375 -0.0625 0
-0.40625 -0.03125 0
-0.375 -0.03125 0
-0.40625 -0.0625 0
-0.375 -0.0625 0
-0.5 -0.09375 0
-0.46875 -0.09375 0
-0.4375 -0.09375 0
-0.5 -0.125 0
-0.46875 -0.125 0
-0.4375 -0.125 0
-0.40625 -0.09375 0
-0.375 -0.09375 0
-0.40625 -0.125 0
-0.375 -0.125 0
-0.34375 -0.03125 0
-0.3125 -0.03125 0
-0.34375 -0.0625 0
-0.3125 -0.0625 0
-0.28125 -0.03125 0
-0.25 -0.03125 0
-0.28125 -0.0625 0
-0.25 -0.0625 0
-0.34375 -0.09375 0
-0.3125 -0.09375 0
-0.34375 -0.125 0
-0.3125 -0.125 0
-0.28125 -0.09375 0
-0.25 -0.09375 0
-0.28125 -0.125 0
-0.25 -0.125 0
-0.5 -0.15625 0
-0.46875 -0.15625 0
-0.4375 -0.15625 0
-0.5 -0.1875 0
-0.46875 -0.1875 0
-0.4375 -0.1875 0
-0.40625 -0.15625 0
-0.375 -0.15625 0
[...]
POINT_DATA 1089
SCALARS T float
LOOKUP_TABLE default
0
0
0
0
0
0
0
0
0
0
0
0
0
0
0
0
0
0
0
0
0
0
0
0
0
0
0
0
0
0
0
0
0
0
0
0
0
0
0
0
0
0
0
0
0
0
0
0
0
0
0
0
0
0
0
0
0
0
0
0
0
0
0
0
0
0
0
0
0
0
0
0
0
0
0
0
0
0
0
0
0
0
0
0
0
0
0
0
0
0
0
0
0
0
0
0
0
0
0
0
0
0
0
0
0
0
0
0
0
0
0
0
0
0
0
0
0
0
0
0
0
0
0
0
0
0
0
0
0
0
0
0
0
0
0
0
0
0
0
0
0
0
0
0
0
0
0
0
0
0
0
0
0
0
0
0
0
0
0
0
0
0
0
0
0
0
0
0
0
0
0
0
0
0
0
0
0
0
0
0
0
0
0
0
0
0
0
0
0
0
0
0
0
0
0
0
0
0
0
0
0
0
0
0
0
0
0
0
0.0177623
0
0
0
0
0
0
0
0
0
0
0.112087
0.254289
0
0
0.365691
0.434208
0
0
0
0
0
0
0
0
0
0
0
0
0
0
0
0
0
0
0
0
0
0
0
0
0
0
0
0
0
0
0
0
0
0
0
0
0
0
0
0
0
0
0.454323
0.421798
0
0
0.338758
0.211458
0
0
0
0
0
0
0
0
0
0
0.0742781
0.00562177
0
0
0
0
0
0
0
0
0
0
0
0
0
0
0
0
0
0
0
0
0
0
0
0
0
0
0
0
0
0
0
0
0
0
0
0
0
0
0
0
0
0
0
0
0
0
0
0
0
0
0
0
0
4.63952e-05
0
0.112263
0.0391401
0.0852353
0.401357
0.585235
0
0
0
0
0
0
0
0
0.047062
0.000920476
0.433528
0.137386
0
0
0
0
0
0
0
0
0
0
0
0
0
0
0
0
0
0
0
0
0
0
0
0
0
0
0
0
0
0
0
0
0
0
0
0
0
0
0
0
0
0
0
0
0
0
0
0
0
0
0
0
0
0
0
0
0
0
0
0
0
0
0
0
0
0
0
0
0
0
0
0
0
0
0
0
0.00761138
0.344013
0.0753134
0.549499
0.836402
1
0.974185
1
0.162308
0.662308
0.156432
0.656432
1
1
1
1
0.869878
0.380445
0.983412
0.550456
0.0105673
0
0.0670435
0
1
0.618921
0.994885
0.570382
0.118921
0
0.0754967
0
0.0669338
0.531917
0.00510697
0.257542
0.964983
1
0.636843
0.733368
0
0.0374525
0
0
0.171861
0.233368
0
0
0.870022
0.383074
0.47653
0.12757
0.0130517
0
0
0
0.101393
0.00243339
0
0
0
0
0
0
0
0
0
0
0
0
0
0
0
0
0
0
0
0
0
0
0
0
0
0
0
0
0
0
0
0
0
0
0
0
0
0
0
0
0
0
0
0
0
0
0
0
0
0
0
0
0
0
0
0
0
0
0
0
0
0
0
0
0
0
0
0
0
0
0
0
1.79634e-05
0
0
0.080748
0.115328
0.37444
0.446057
0.856677
0
0
0.259445
0
0
0.385881
0.759444
0.999999
0.885881
1
0.603455
0.754289
0.991368
1
0.865691
0.934208
1
1
1
1
1
1
1
1
1
1
0
0
0.381758
0
0
0.244591
0.881758
1
0.744175
0.999584
0
0
0.0699987
0
0
0
0.416815
0.827583
0.0972316
0.335973
1
1
1
1
1
1
1
1
0.980767
1
0.559497
0.706914
1
1
0.822041
0.901272
0.954323
0.921798
1
1
0.838758
0.711458
1
1
1
1
1
1
1
1
1
1
0.532475
0.25404
0.958197
0.69869
0.0402219
0
0.242246
0.00175223
1
0.950272
1
1
0.497382
0.0471107
0.623983
0.123983
1
1
1
1
1
1
1
1
1
1
0.934249
0.915873
1
1
0.850883
0.741581
1
1
1
0.970956
0.641351
0.141351
0.54183
0.0708745
0.97173
0.751862
0.571978
0.293443
0.28828
0.0081479
0.0591766
0
0
0
0
0
0
0
0
0.00797405
0
0
0
0
0
0
0
0
0
0
0
0
0.0787298
0.206915
0
0
0.322041
0.401272
0
0
0
0
0
0
0
0
0
0
0
0
0
0
0
0
0
0
0
0
0
0
0
0
0
0
0
0
0
0
0
0
0
0
0
0
0
0
0
0
0
0
0
0
0
0
0.434249
0.415873
0
0
0.350883
0.241581
0
0
0
0
0
0
0
0
0
0
0.100248
0.0125368
0
0
0
0
0
0
0
0
0
0
0
0
0
0
0
0
0
0
0
0
0
0
0
0
0
0
0
0
0
0
0
0
0
0
0
0
0
0
0
0
0
0
0
0
0
0
0
0
0
8.94435e-07
0
0
0.0854397
0.201342
0
0.0825154
0
0.234669
0.417954
0.701342
0.734669
1
0
0
0.125723
0.00981929
0
0
0
0
0.53627
0.170672
0.910547
0.435281
0.000306076
0
0.0247335
0
0
0.22675
0
0.0748692
0.726507
0.999757
0.401854
0.759695
0
0.000273788
0
0
0.0775015
0.259938
0
0
0.966413
0.49084
0.739006
0.306295
0.0244274
0
0
0
0.272594
0.0898829
0
0
0
0
0
0
0
0
0
0
0
0
0
0
0
0
0
0
0
0
0
0
0
0
0
0
0
0
0
0
0
0
0
0
0
0
0
0
0
0
0
0
0
0
0
0
0
0
0
0
0
0
0
0
0
0
0
0
0
0
0
0
0
0
0
0
0
0
0
0
0
0
0
0
0
0
0
0
0
0
0
0
0
0
0
0
0
0
0
0
0
0
0
0
0
0
0
0
0
0
0
0
0
0
0
0
0
0
0
0
0
0
0
0
0
0
0
0
0
0
0
0
0
0
0
0
0
0
0
0
0
0
0
0
0
0
0
0
0
0
0
0
0
0
0
0
0
0
0
0
0
0
0
0
0
0
0
0
0
0
0
0
0
0
0
0
0
0
0
0
0
0
0
0
0
0
0
0
0
0
0
0
0
0
0
0
0
0
0
0
0
0
0
0
0
0
0
0

SCALARS P float
LOOKUP_TABLE default
-0.00617031
-0.00585703
-0.00646681
-0.00612255
-0.00550384
-0.00570991
-0.00592291
-0.00564302
-0.00533668
-0.00511539
-0.00524119
-0.00471149
-0.00474097
-0.00500691
-0.00466923
-0.00571845
-0.00546664
-0.0051959
-0.00555357
-0.00532541
-0.00508018
-0.00490705
-0.00461226
-0.00481703
-0.00454562
-0.0043226
-0.00424934
-0.00398864
-0.00382444
-0.00434737
-0.00407043
-0.00375234
-0.00353178
-0.00364001
-0.00340432
-0.00386784
-0.00375933
-0.00433047
-0.004084
-0.00428202
-0.00404444
-0.00389434
-0.00377649
-0.00384982
-0.00370948
-0.00542744
-0.00521942
-0.00499058
-0.00534435
-0.00515419
-0.00493312
-0.0047393
-0.00447386
-0.00468017
-0.00440368
-0.00531397
-0.0051396
-0.00491705
-0.00535277
-0.00519103
-0.00495625
-0.00464769
-0.00434162
-0.00465331
-0.00429578
-0.00420916
-0.00396162
-0.00411925
-0.00384371
-0.0037458
-0.00357088
-0.00359172
-0.00337225
-0.00401723
-0.00369488
-0.00390732
-0.0035166
-0.00339353
-0.00312425
-0.00315293
-0.00283207
-0.00365928
-0.00344593
-0.00380982
-0.003652
-0.00375311
-0.00385181
-0.00408426
-0.00400857
-0.00447559
-0.0045032
-0.00405658
-0.00437305
-0.00373805
-0.00378498
-0.00363066
-0.0036238
-0.00392862
-0.00419089
-0.00371221
-0.00393697
-0.00496565
-0.00509184
-0.00552689
-0.00570915
-0.00480706
-0.00535895
-0.00613979
-0.00631382
-0.00678057
-0.00688065
-0.0060235
-0.00677725
-0.00460222
-0.00517977
-0.00434587
-0.00496069
-0.00592516
-0.006827
-0.00579479
-0.00686717
-0.00344474
-0.00338382
-0.00319467
-0.00308152
-0.00342469
-0.00362243
-0.00307646
-0.00323557
-0.00289878
-0.00274229
-0.00256615
-0.00237617
-0.00269476
-0.00280679
-0.0022838
-0.002322
-0.00403025
-0.00467903
-0.00361571
-0.00426013
-0.00559423
-0.00682096
-0.00515743
-0.0063787
-0.00313408
-0.00368911
-0.00249327
-0.00267528
-0.00433778
-0.0052675
-0.00255686
-0.00232067
-0.00548545
-0.00533026
-0.00506961
-0.00574437
-0.0055867
-0.00528491
-0.00471114
-0.00427367
-0.00484566
-0.00429305
-0.00616101
-0.00599166
-0.00563242
-0.00677537
-0.00660026
-0.00618438
-0.00507817
-0.00435644
-0.0054905
-0.00453651
-0.00378976
-0.00330497
-0.00366842
-0.00304642
-0.00286928
-0.00250302
-0.00251703
-0.00210904
-0.003524
-0.00271858
-0.00337244
-0.00225115
-0.00209443
-0.0016688
-0.00147082
-0.00102859
-0.00760163
-0.00743345
-0.00695983
-0.00870101
-0.00863858
-0.00822946
-0.00608061
-0.00478022
-0.00722507
-0.0054095
-0.010032
-0.0101836
-0.00996529
-0.0115995
-0.0121688
-0.0125144
-0.00888688
-0.0062192
-0.0118637
-0.00690568
-0.00311562
-0.00160548
-0.00272377
-0.000333659
-0.000728408
-0.000337301
0.000757592
0.00101174
-0.00190219
0.00155722
0.00299122
0.0110144
0.00269468
0.00268659
0.0149767
0.0174435
-0.00221612
-0.00202006
-0.0018285
-0.00167681
-0.00190971
-0.00188742
-0.00161909
-0.00163766
-0.00143449
-0.00138516
-0.000884555
-0.00101943
-0.00146109
-0.00168122
-0.00136198
-0.00203073
-0.00183169
-0.00139287
-0.00149453
-0.000720749
5.98964e-05
0.00316351
0.00140307
0.00603689
-0.00176901
-0.00121672
-0.00271568
-0.00270647
0.000477615
0.00423641
-0.00162759
0.00124071
-0.000341924
-0.000700771
0.000768004
0.000191581
-0.00130541
-0.00254429
-0.000684055
-0.00291278
0.00207404
0.00128231
0.0178718
0.015703
0.000386351
-0.00266473
0.0118931
0.00531199
-0.00421693
-0.00522458
-0.0063641
-0.00884237
-0.00532884
-0.00439064
-0.0101728
-0.0112672
-0.00835711
-0.0125984
-0.00765355
-0.0176593
-0.0145392
-0.0163098
-0.0196862
-0.0207942
-0.00740828
-0.00738477
-0.0079821
-0.00780372
-0.0075661
-0.00834599
-0.00843437
-0.00810726
-0.00867622
-0.00826661
-0.00900242
-0.00934167
-0.00782152
-0.00889106
-0.00809292
-0.00956263
-0.00986093
-0.0103423
-0.0110725
-0.0118356
-0.00868482
-0.00829136
-0.00851741
-0.00822033
-0.00929486
-0.00896706
-0.00826549
-0.00809816
-0.00799356
-0.0079559
-0.00853185
-0.00809767
-0.0101864
-0.00959061
-0.011505
-0.0104501
-0.00888984
-0.00825386
-0.00933797
-0.0084444
-0.00823132
-0.0103039
-0.00781375
-0.0110234
-0.0128855
-0.0142936
-0.0160391
-0.018951
-0.00640454
-0.0115126
-0.00170917
0.00775182
-0.0131791
-0.0100187
0.0423658
0.0687466
-0.0136813
-0.0117293
-0.0176249
-0.0135697
-0.00989077
-0.00864812
-0.0102812
-0.0086225
-0.0150144
-0.0156976
0.0435811
0.00549933
-0.0100048
-0.00804616
-0.00638109
-0.0056015
-0.00773225
-0.00780935
-0.00749626
-0.00766554
-0.00770317
-0.00736709
-0.00728397
-0.00752208
-0.00708666
-0.00737222
-0.00708495
-0.00684311
-0.00770522
-0.00726184
-0.00771418
-0.00715721
-0.00691028
-0.00662837
-0.00674091
-0.0064284
-0.0068904
-0.00720463
-0.00668077
-0.00700728
-0.00662318
-0.00640646
-0.00644424
-0.00676768
-0.00617031
-0.00648134
-0.00617676
-0.00592291
-0.00639076
-0.00617233
-0.00618361
-0.00597201
-0.00595265
-0.00571845
-0.00576741
-0.00555357
-0.00769358
-0.00701996
-0.00746328
-0.00673677
-0.00655166
-0.00622634
-0.00627819
-0.00598944
-0.00681556
-0.00619627
-0.00514255
-0.00513819
-0.0058683
-0.00569796
-0.00522861
-0.00532905
-0.00599169
-0.00580008
-0.00580095
-0.00565278
-0.00561855
-0.00542744
-0.00550768
-0.00534435
-0.00560838
-0.00553494
-0.0054185
-0.00546061
-0.00544311
-0.00531397
-0.00544148
-0.00535277
0.00917825
0.0396344
0.0182384
0.0566341
0.0933575
0.120995
0.0946102
0.103338
0.0204686
0.063805
0.0166798
0.0647453
0.0974935
0.101024
0.102704
0.104589
0.096619
0.0394233
0.0956279
0.0546515
0.00384228
-0.000514346
0.0135523
0.00322863
0.0961565
0.0589707
0.0981313
0.0555192
0.0157247
0.00305318
0.0107544
0.00167294
0.00251972
0.0553561
-0.0119811
0.0184609
0.109914
0.11428
0.0732936
0.0884273
-0.018531
-0.0177854
-0.0223142
-0.0253343
0.00207774
0.015277
-0.0266786
-0.0217371
0.0915881
0.0392583
0.0506025
0.0100733
0.00362995
-0.000274397
-0.00237409
-0.0035446
0.000580136
-0.00837785
-0.0135992
-0.00942501
-0.00683021
-0.00633885
-0.00857639
-0.00787372
-0.00249345
-0.00373675
-0.000502117
-0.00264598
-0.00450217
-0.00497939
-0.00398339
-0.00479713
-0.000378786
-0.00248604
-0.00121804
-0.0030754
-0.00398104
-0.00493669
-0.00448193
-0.00543099
-0.00529313
-0.00547112
-0.00531676
-0.00562064
-0.00553309
-0.00548545
-0.00575724
-0.00574437
-0.00557109
-0.00595812
-0.00609009
-0.00651383
-0.00614943
-0.00616101
-0.00674126
-0.00677537
-0.00251655
-0.00411489
-0.00458348
-0.00564289
-0.0053282
-0.00620324
-0.00650892
-0.00721782
-0.00655992
-0.00717187
-0.00807936
-0.00852956
-0.00776043
-0.0083244
-0.00896934
-0.00944132
-0.00683863
-0.00727457
-0.00778622
-0.00822538
-0.00753453
-0.00760163
-0.0085414
-0.00870101
-0.008837
-0.00929568
-0.00992234
-0.0104312
-0.00970564
-0.010032
-0.0109935
-0.0115995
-0.0133934
-0.0148839
-0.0171002
-0.0148381
-0.0171959
-0.0142301
-0.0083578
0.0133522
0.0146458
0.0459854
-0.0151185
-0.0171846
-0.000109523
-0.0149009
-0.0162177
0.0105163
0.0389979
0.0570438
0.0480167
0.0560015
0.027483
0.0308874
0.0496022
0.0443078
0.033182
0.0355991
0.0417101
0.0410266
0.051732
0.0472384
0.0520785
0.0484338
0.0445166
0.0432908
0.0458463
0.0444646
-0.0151113
-0.0164915
0.0101127
-0.0156063
-0.0177246
-0.00157477
0.0478265
0.0561062
0.0379295
0.0572921
-0.0153958
-0.0176362
-0.0153115
-0.0140114
-0.0152962
-0.01726
0.0123801
0.0442433
-0.00974694
0.0108633
0.0521202
0.0483775
0.0518391
0.047034
0.0457526
0.04441
0.0441897
0.0430944
0.0490103
0.0436072
0.0254944
0.0289263
0.0408448
0.0405541
0.0310374
0.0340768
0.0364592
0.0346643
0.0408509
0.0407419
0.0313406
0.0282828
0.0411369
0.0444303
0.0428111
0.0427948
0.0438918
0.0439359
0.0434091
0.0456324
0.0446146
0.0462224
0.0193037
-0.00463028
0.0471935
0.0267576
-0.0232946
-0.0255053
-0.0115444
-0.0291721
0.048835
0.0450578
0.0479291
0.0476035
0.00753887
-0.0277163
0.0164223
-0.0221393
0.0439072
0.0440212
0.0428201
0.0429919
0.0448525
0.0466794
0.0440285
0.0467928
0.0408067
0.0409464
0.0358215
0.0348278
0.0419306
0.0458513
0.0327831
0.0310369
0.0487506
0.0489406
0.050804
0.0502194
0.018328
-0.0207668
0.012881
-0.0252639
0.0504254
0.0348106
0.0242111
0.00182699
-0.00493115
-0.0261941
-0.0185072
-0.0211367
-0.0123236
-0.0126764
-0.0128295
-0.0108668
-0.0107673
-0.010328
-0.0119604
-0.00761228
-0.0090615
-0.00634642
-0.00965898
-0.00932907
-0.0086802
-0.00866973
-0.00823046
-0.00753047
-0.00747213
-0.0055179
-0.00646401
-0.00500704
0.00165896
0.00995993
-0.00186386
0.00210651
0.0140303
0.0166509
0.00357647
0.00331182
-0.00268869
-6.74616e-05
-0.00321397
-0.00161213
0.0011579
0.00123695
-0.000756445
-0.000554099
-0.00791684
-0.00746823
-0.00683047
-0.0073179
-0.00688765
-0.00632242
-0.0059614
-0.00487672
-0.00561154
-0.00478598
-0.00685042
-0.00645867
-0.00597547
-0.00648134
-0.00612255
-0.00570991
-0.00540213
-0.00476701
-0.00524119
-0.00474097
-0.00363689
-0.00250535
-0.00391068
-0.00313577
-0.00181573
-0.00159246
-0.0026401
-0.0024575
-0.00412097
-0.00355265
-0.00424934
-0.00382444
-0.00316932
-0.00301247
-0.00353178
-0.00340432
0.017621
0.016335
0.00253045
0.00199519
0.013302
0.00747858
0.000862636
-0.00247455
0.00077993
0.000205601
-0.000786531
-0.00132019
-0.000848723
-0.00324964
-0.0022285
-0.00382461
-0.00438131
-0.0145383
-0.00772076
-0.0114085
-0.0166836
-0.0159483
-0.0125516
-0.0126002
-0.00665058
-0.00913236
-0.00589857
-0.00756904
-0.0101908
-0.0104754
-0.00854112
-0.00899628
-0.0017389
-0.00219046
-0.00255429
-0.00290393
-0.0029514
-0.00413663
-0.00348913
-0.00433797
-0.00307671
-0.00335049
-0.00344593
-0.003652
-0.00381398
-0.00445942
-0.00400857
-0.0045032
-0.00556734
-0.00677707
-0.00533862
-0.00625259
-0.00760174
-0.0080898
-0.00697108
-0.00748301
-0.00521033
-0.00593948
-0.00509184
-0.00570915
-0.00657975
-0.00710716
-0.00631382
-0.00688065
-0.0257839
-0.0268699
-0.0296866
-0.0317579
-0.0238179
-0.0147738
-0.0203805
-0.00335201
-0.0336116
-0.0262045
-0.0354087
-0.00306164
0.0247871
0.0608381
0.0799875
0.116781
-0.00808865
-0.00865209
-0.000220839
-0.00678188
-0.0098525
-0.00923551
-0.0114439
-0.0109445
0.0383563
0.000451345
0.0929115
0.0270538
-0.0184649
-0.0160743
-0.0239717
-0.0210345
-0.0335458
0.000955669
-0.0292498
-0.0170165
0.0787496
0.112523
0.0334827
0.0743578
-0.0237833
-0.021013
-0.0183666
-0.0150844
-0.00530973
0.0196483
-0.0116882
-0.00241336
0.107279
0.0414573
0.0709844
0.0234418
-0.0247979
-0.0213089
-0.017249
-0.0157521
0.0225092
0.00349041
0.00140135
-0.00512384
-0.0089174
-0.0108529
-0.00878741
-0.0102065
-0.00955923
-0.00986633
-0.011143
-0.011221
-0.0101506
-0.0105227
-0.0112933
-0.0115224
-0.0141805
-0.0131247
-0.0166083
-0.0144623
-0.0125858
-0.0124678
-0.013437
-0.0130746
-0.0109707
-0.011549
-0.0118967
-0.0124898
-0.0123216
-0.0133934
-0.0133944
-0.0148381
-0.012642
-0.0131063
-0.013107
-0.01345
-0.0138891
-0.0151185
-0.0140583
-0.0149009
-0.016784
-0.0147548
-0.0143346
-0.0136954
-0.0136939
-0.0133111
-0.0132015
-0.0130739
-0.0117091
-0.0121446
-0.010883
-0.011318
-0.0122815
-0.012463
-0.0115704
-0.0118084
-0.013321
-0.0136461
-0.0132106
-0.01363
-0.014247
-0.0151113
-0.0143776
-0.0156063
-0.012759
-0.0132555
-0.0121071
-0.0125225
-0.0140586
-0.0153958
-0.013123
-0.0140114
-0.0143457
-0.0122562
-0.0117498
-0.0104631
-0.010036
-0.00508312
-0.00893482
-0.00650298
-0.0100988
-0.00939228
-0.00897823
-0.00868653
-0.00846658
-0.00723947
-0.00820213
-0.00760326
-0.00297333
-0.00588313
-0.00547701
-0.0066674
-0.00788615
-0.00914847
-0.00782511
-0.00871852
-0.00672485
-0.00723149
-0.0073466
-0.00756853
-0.00787836
-0.00845463
-0.00793298
-0.00828819
-0.00826423
-0.00822959
-0.00779051
-0.00793748
-0.00804031
-0.00778478
-0.00795454
-0.00789782
-0.00751068
-0.00779617
-0.00738477
-0.00780372
-0.00796517
-0.00803441
-0.00810726
-0.00826661
-0.0076742
-0.00777484
-0.00786778
-0.00790611
-0.00796603
-0.00816249
-0.00798019
-0.00805458
-0.00804753
-0.00803809
-0.00829136
-0.00822033
-0.00801697
-0.00798434
-0.00809816
-0.0079559
-0.00992152
-0.0104406
-0.00935095
-0.00979408
-0.010788
-0.0110559
-0.0101096
-0.0103362
-0.00891616
-0.00925639
-0.00859058
-0.00881753
-0.0095042
-0.00966964
-0.00897788
-0.00907012
-0.011317
-0.0116038
-0.0105214
-0.0106782
-0.0119417
-0.0123236
-0.0108073
-0.0108668
-0.00977501
-0.00982178
-0.00909848
-0.00905667
-0.00979896
-0.00965898
-0.00892792
-0.00866973
-0.00833269
-0.00845599
-0.00811299
-0.00814333
-0.00853058
-0.00855135
-0.0081403
-0.00809769
-0.00794039
-0.00788292
-0.00780935
-0.00766554
-0.00780763
-0.00770829
-0.00752208
-0.00737222
-0.00851381
-0.00840878
-0.00800699
-0.00785785
-0.00822012
-0.00791684
-0.00763551
-0.0073179
-0.00757488
-0.00739652
-0.00720463
-0.00700728
-0.00716019
-0.00685042
-0.00676768
-0.00646681

SCALARS U float
LOOKUP_TABLE default
0.0240176
0.0248838
0.0241611
0.0252375
0.02558
0.0262314
0.0240564
0.0247034
0.0251799
0.0260242
0.0269496
0.0261323
0.0272577
0.025425
0.0253831
0.0242107
0.0246923
0.0250057
0.0244878
0.0248478
0.0250429
0.025103
0.0249436
0.02503
0.0247741
0.0258411
0.0270519
0.0251422
0.0263147
0.0250149
0.0243194
0.0240618
0.0250687
0.0226814
0.0234077
0.023324
0.0220998
0.0245007
0.0237772
0.024253
0.0234701
0.0228002
0.021633
0.0224518
0.0212584
0.0248904
0.0251678
0.0252837
0.0254143
0.0256492
0.0257273
0.0251932
0.0248584
0.025594
0.0252002
0.0260511
0.026291
0.0263811
0.0267789
0.027087
0.0272569
0.0262488
0.0258234
0.0271886
0.0267762
0.0242542
0.0233819
0.0245106
0.0235205
0.0222656
0.0209661
0.0222498
0.0207621
0.0250507
0.0239154
0.0259346
0.0246325
0.0224292
0.0206603
0.0228648
0.0207024
0.0211405
0.0215243
0.0196079
0.0196573
0.0207547
0.0194177
0.018243
0.0180237
0.0171589
0.0167611
0.0182139
0.0172408
0.0203676
0.0191138
0.019976
0.0187085
0.0179799
0.0170582
0.017561
0.0166292
0.0164307
0.0159609
0.0160862
0.0156644
0.016564
0.0162116
0.0160763
0.0158058
0.0162861
0.0162189
0.0161472
0.0162839
0.0164112
0.0160755
0.015977
0.0156638
0.0160311
0.0162032
0.0156907
0.015969
0.0195731
0.0181972
0.0191603
0.0175722
0.016951
0.0159378
0.0161234
0.0149237
0.0187386
0.0168245
0.0183213
0.0159401
0.0150698
0.0135771
0.01375
0.0118076
0.0152281
0.0149015
0.0140306
0.0135039
0.0149623
0.0152653
0.0133234
0.0131844
0.012344
0.0113409
0.0100165
0.0082136
0.0103852
0.00908772
0.00610864
0.00447201
0.0275715
0.028033
0.0283759
0.0283857
0.0291143
0.0297649
0.0284633
0.0281329
0.0301501
0.0300073
0.0291892
0.0303138
0.031451
0.0298909
0.0315676
0.0334355
0.0323333
0.0325126
0.035086
0.0356287
0.0272503
0.0257651
0.0291185
0.0274274
0.0236402
0.0209406
0.024857
0.0214358
0.0316305
0.0296921
0.0343906
0.0317954
0.0265797
0.0222009
0.0280482
0.0228014
0.0302658
0.0326216
0.0354406
0.0300135
0.0331232
0.0370192
0.0379808
0.038375
0.0400912
0.0380303
0.0283828
0.0319629
0.0366489
0.0249391
0.0287517
0.0344936
0.0390419
0.0312415
0.0367541
0.0279199
0.0355857
0.0313349
0.0292229
0.0199386
0.0269731
0.0219572
0.0159535
0.0162148
0.0129634
-0.00106016
0.0129861
0.00548253
-0.000980678
0.00853381
0.00724368
0.011971
0.0179265
0.0149358
0.0175526
0.0137596
0.0122634
0.00996006
0.0105373
0.00795667
0.0171192
0.0122233
0.0166297
0.0107608
0.0082473
0.00523236
0.00601008
0.00219715
0.00799623
0.0063178
0.00630023
0.00582966
0.00487342
0.0048265
0.00716269
0.00888504
0.00375033
0.00450157
5.83902e-05
0.00122598
0.00841491
0.011974
0.00591223
0.0120031
0.0163678
0.0109861
0.0179906
0.0190831
0.00604473
0.000920441
0.0170462
0.00931806
0.0209094
0.031548
0.0171523
0.0214962
0.0362621
0.0284604
0.024986
0.0231508
-0.00343713
-0.00374866
-0.00190562
-0.00799974
-0.00013804
0.00803258
-0.00737308
-0.00171041
0.00850029
-0.00703476
0.0089313
-0.00660914
-0.00992415
-0.00735039
-0.00885887
-0.00390469
0.0165638
0.0166738
0.0167496
0.0169625
0.0165192
0.0166864
0.0167493
0.0169541
0.0166063
0.0166745
0.016672
0.0165557
0.0165283
0.0167819
0.0165268
0.0170467
0.0167419
0.016537
0.0170105
0.0166397
0.0164521
0.0162975
0.0164302
0.0160282
0.0164962
0.0166423
0.0166307
0.0160091
0.0170435
0.0162664
0.017053
0.0176466
0.0164324
0.016671
0.0163881
0.0166357
0.0173119
0.0181323
0.0175163
0.0185933
0.0161305
0.017158
0.0144352
0.0170315
0.0172108
0.0167827
0.0176203
0.0165693
0.0122111
0.0200642
0.0119126
0.0247792
0.0218433
0.0173412
0.0258423
0.0210342
0.0165844
0.0169812
0.0163765
0.0178799
0.0181565
0.0193562
0.0202209
0.0213618
0.014565
0.0173706
0.0173804
0.0172207
0.0233945
0.0253945
0.0257254
0.030497
0.01763
0.016774
0.0183559
0.0174884
0.0183446
0.0191142
0.0191876
0.0183657
0.0200983
0.0193708
0.0199286
0.0207709
0.0189772
0.0198195
0.0196017
0.0205364
0.0206376
0.0214297
0.021368
0.0221153
0.0210641
0.0204735
0.0220607
0.0216487
0.0216267
0.0224778
0.0230583
0.0228654
0.0240176
0.0240047
0.0232991
0.0240564
0.0221963
0.022929
0.0228029
0.023436
0.0236099
0.0242107
0.0240054
0.0244878
0.0203698
0.0213447
0.0217735
0.0224688
0.0221698
0.0228607
0.0231434
0.0237079