# vtk DataFile Version 2.0
Gerris simulation version 1.3.2 (131206-155120)
ASCII
DATASET UNSTRUCTURED_GRID

POINTS 1089 float
-0.5 0.46875 0
-0.46875 0.46875 0
-0.5 0.5 0
-0.46875 0.5 0
-0.4375 0.46875 0
-0.4375 0.5 0
-0.5 0.4375 0
-0.46875 0.4375 0
-0.4375 0.4375 0
-0.40625 0.46875 0
-0.40625 0.5 0
-0.375 0.46875 0
-0.375 0.5 0
-0.40625 0.4375 0
-0.375 0.4375 0
-0.5 0.40625 0
-0.46875 0.40625 0
-0.4375 0.40625 0
-0.5 0.375 0
-0.46875 0.375 0
-0.4375 0.375 0
-0.40625 0.40625 0
-0.375 0.40625 0
-0.40625 0.375 0
-0.375 0.375 0
-0.34375 0.46875 0
-0.34375 0.5 0
-0.3125 0.46875 0
-0.3125 0.5 0
-0.34375 0.4375 0
-0.3125 0.4375 0
-0.28125 0.46875 0
-0.28125 0.5 0
-0.25 0.46875 0
-0.25 0.5 0
-0.28125 0.4375 0
-0.25 0.4375 0
-0.34375 0.40625 0
-0.3125 0.40625 0
-0.34375 0.375 0
-0.3125 0.375 0
-0.28125 0.40625 0
-0.25 0.40625 0
-0.28125 0.375 0
-0.25 0.375 0
-0.5 0.34375 0
-0.46875 0.34375 0
-0.4375 0.34375 0
-0.5 0.3125 0
-0.46875 0.3125 0
-0.4375 0.3125 0
-0.40625 0.34375 0
-0.375 0.34375 0
-0.40625 0.3125 0
-0.375 0.3125 0
-0.5 0.28125 0
-0.46875 0.28125 0
-0.4375 0.28125 0
-0.5 0.25 0
-0.46875 0.25 0
-0.4375 0.25 0
-0.40625 0.28125 0
-0.375 0.28125 0
-0.40625 0.25 0
-0.375 0.25 0
-0.34375 0.34375 0
-0.3125 0.34375 0
-0.34375 0.3125 0
-0.3125 0.3125 0
-0.28125 0.34375 0
-0.25 0.34375 0
-0.28125 0.3125 0
-0.25 0.3125 0
-0.34375 0.28125 0
-0.3125 0.28125 0
-0.34375 0.25 0
-0.3125 0.25 0
-0.28125 0.28125 0
-0.25 0.28125 0
-0.28125 0.25 0
-0.25 0.25 0
-0.21875 0.46875 0
-0.21875 0.5 0
-0.1875 0.46875 0
-0.1875 0.5 0
-0.21875 0.4375 0
-0.1875 0.4375 0
-0.15625 0.46875 0
-0.15625 0.5 0
-0.125 0.46875 0
-0.125 0.5 0
-0.15625 0.4375 0
-0.125 0.4375 0
-0.21875 0.40625 0
-0.1875 0.40625 0
-0.21875 0.375 0
-0.1875 0.375 0
-0.15625 0.40625 0
-0.125 0.40625 0
-0.15625 0.375 0
-0.125 0.375 0
-0.09375 0.46875 0
-0.09375 0.5 0
-0.0625 0.46875 0
-0.0625 0.5 0
-0.09375 0.4375 0
-0.0625 0.4375 0
-0.03125 0.46875 0
-0.03125 0.5 0
0 0.46875 0
0 0.5 0
-0.03125 0.4375 0
0 0.4375 0
-0.09375 0.40625 0
-0.0625 0.40625 0
-0.09375 0.375 0
-0.0625 0.375 0
-0.03125 0.40625 0
0 0.40625 0
-0.03125 0.375 0
0 0.375 0
-0.21875 0.34375 0
-0.1875 0.34375 0
-0.21875 0.3125 0
-0.1875 0.3125 0
-0.15625 0.34375 0
-0.125 0.34375 0
-0.15625 0.3125 0
-0.125 0.3125 0
-0.21875 0.28125 0
-0.1875 0.28125 0
-0.21875 0.25 0
-0.1875 0.25 0
-0.15625 0.28125 0
-0.125 0.28125 0
-0.15625 0.25 0
-0.125 0.25 0
-0.09375 0.34375 0
-0.0625 0.34375 0
-0.09375 0.3125 0
-0.0625 0.3125 0
-0.03125 0.34375 0
0 0.34375 0
-0.03125 0.3125 0
0 0.3125 0
-0.09375 0.28125 0
-0.0625 0.28125 0
-0.09375 0.25 0
-0.0625 0.25 0
-0.03125 0.28125 0
0 0.28125 0
-0.03125 0.25 0
0 0.25 0
-0.5 0.21875 0
-0.46875 0.21875 0
-0.4375 0.21875 0
-0.5 0.1875 0
-0.46875 0.1875 0
-0.4375 0.1875 0
-0.40625 0.21875 0
-0.375 0.21875 0
-0.40625 0.1875 0
-0.375 0.1875 0
-0.5 0.15625 0
-0.46875 0.15625 0
-0.4375 0.15625 0
-0.5 0.125 0
-0.46875 0.125 0
-0.4375 0.125 0
-0.40625 0.15625 0
-0.375 0.15625 0
-0.40625 0.125 0
-0.375 0.125 0
-0.34375 0.21875 0
-0.3125 0.21875 0
-0.34375 0.1875 0
-0.3125 0.1875 0
-0.28125 0.21875 0
-0.25 0.21875 0
-0.28125 0.1875 0
-0.25 0.1875 0
-0.34375 0.15625 0
-0.3125 0.15625 0
-0.34375 0.125 0
-0.3125 0.125 0
-0.28125 0.15625 0
-0.25 0.15625 0
-0.28125 0.125 0
-0.25 0.125 0
-0.5 0.09375 0
-0.46875 0.09375 0
-0.4375 0.09375 0
-0.5 0.0625 0
-0.46875 0.0625 0
-0.4375 0.0625 0
-0.40625 0.09375 0
-0.375 0.09375 0
-0.40625 0.0625 0
-0.375 0.0625 0
-0.5 0.03125 0
-0.46875 0.03125 0
-0.4375 0.03125 0
-0.5 0 0
-0.46875 0 0
-0.4375 0 0
-0.40625 0.03125 0
-0.375 0.03125 0
-0.40625 0 0
-0.375 0 0
-0.34375 0.09375 0
-0.3125 0.09375 0
-0.34375 0.0625 0
-0.3125 0.0625 0
-0.28125 0.09375 0
-0.25 0.09375 0
-0.28125 0.0625 0
-0.25 0.0625 0
-0.34375 0.03125 0
-0.3125 0.03125 0
-0.34375 0 0
-0.3125 0 0
-0.28125 0.03125 0
-0.25 0.03125 0
-0.28125 0 0
-0.25 0 0
-0.21875 0.21875 0
-0.1875 0.21875 0
-0.21875 0.1875 0
-0.1875 0.1875 0
-0.15625 0.21875 0
-0.125 0.21875 0
-0.15625 0.1875 0
-0.125 0.1875 0
-0.21875 0.15625 0
-0.1875 0.15625 0
-0.21875 0.125 0
-0.1875 0.125 0
-0.15625 0.15625 0
-0.125 0.15625 0
-0.15625 0.125 0
-0.125 0.125 0
-0.09375 0.21875 0
-0.0625 0.21875 0
-0.09375 0.1875 0
-0.0625 0.1875 0
-0.03125 0.21875 0
0 0.21875 0
-0.03125 0.1875 0
0 0.1875 0
-0.09375 0.15625 0
-0.0625 0.15625 0
-0.09375 0.125 0
-0.0625 0.125 0
-0.03125 0.15625 0
0 0.15625 0
-0.03125 0.125 0
0 0.125 0
-0.21875 0.09375 0
-0.1875 0.09375 0
-0.21875 0.0625 0
-0.1875 0.0625 0
-0.15625 0.09375 0
-0.125 0.09375 0
-0.15625 0.0625 0
-0.125 0.0625 0
-0.21875 0.03125 0
-0.1875 0.03125 0
-0.21875 0 0
-0.1875 0 0
-0.15625 0.03125 0
-0.125 0.03125 0
-0.15625 0 0
-0.125 0 0
-0.09375 0.09375 0
-0.0625 0.09375 0
-0.09375 0.0625 0
-0.0625 0.0625 0
-0.03125 0.09375 0
0 0.09375 0
-0.03125 0.0625 0
0 0.0625 0
-0.09375 0.03125 0
-0.0625 0.03125 0
-0.09375 0 0
-0.0625 0 0
-0.03125 0.03125 0
0 0.03125 0
-0.03125 0 0
0 0 0
0.03125 0.46875 0
0.03125 0.5 0
0.0625 0.46875 0
0.0625 0.5 0
0.03125 0.4375 0
0.0625 0.4375 0
0.09375 0.46875 0
0.09375 0.5 0
0.125 0.46875 0
0.125 0.5 0
0.09375 0.4375 0
0.125 0.4375 0
0.03125 0.40625 0
0.0625 0.40625 0
0.03125 0.375 0
0.0625 0.375 0
0.09375 0.40625 0
0.125 0.40625 0
0.09375 0.375 0
0.125 0.375 0
0.15625 0.46875 0
0.15625 0.5 0
0.1875 0.46875 0
0.1875 0.5 0
0.15625 0.4375 0
0.1875 0.4375 0
0.21875 0.46875 0
0.21875 0.5 0
0.25 0.46875 0
0.25 0.5 0
0.21875 0.4375 0
0.25 0.4375 0
0.15625 0.40625 0
0.1875 0.40625 0
0.15625 0.375 0
0.1875 0.375 0
0.21875 0.40625 0
0.25 0.40625 0
0.21875 0.375 0
0.25 0.375 0
0.03125 0.34375 0
0.0625 0.34375 0
0.03125 0.3125 0
0.0625 0.3125 0
0.09375 0.34375 0
0.125 0.34375 0
0.09375 0.3125 0
0.125 0.3125 0
0.03125 0.28125 0
0.0625 0.28125 0
0.03125 0.25 0
0.0625 0.25 0
0.09375 0.28125 0
0.125 0.28125 0
0.09375 0.25 0
0.125 0.25 0
0.15625 0.34375 0
0.1875 0.34375 0
0.15625 0.3125 0
0.1875 0.3125 0
0.21875 0.34375 0
0.25 0.34375 0
0.21875 0.3125 0
0.25 0.3125 0
0.15625 0.28125 0
0.1875 0.28125 0
0.15625 0.25 0
0.1875 0.25 0
0.21875 0.28125 0
0.25 0.28125 0
0.21875 0.25 0
0.25 0.25 0
0.28125 0.46875 0
0.28125 0.5 0
0.3125 0.46875 0
0.3125 0.5 0
0.28125 0.4375 0
0.3125 0.4375 0
0.34375 0.46875 0
0.34375 0.5 0
0.375 0.46875 0
0.375 0.5 0
0.34375 0.4375 0
0.375 0.4375 0
0.28125 0.40625 0
0.3125 0.40625 0
0.28125 0.375 0
0.3125 0.375 0
0.34375 0.40625 0
0.375 0.40625 0
0.34375 0.375 0
0.375 0.375 0
0.40625 0.46875 0
0.40625 0.5 0
0.4375 0.46875 0
0.4375 0.5 0
0.40625 0.4375 0
0.4375 0.4375 0
0.46875 0.46875 0
0.46875 0.5 0
0.5 0.46875 0
0.5 0.5 0
0.46875 0.4375 0
0.5 0.4375 0
0.40625 0.40625 0
0.4375 0.40625 0
0.40625 0.375 0
0.4375 0.375 0
0.46875 0.40625 0
0.5 0.40625 0
0.46875 0.375 0
0.5 0.375 0
0.28125 0.34375 0
0.3125 0.34375 0
0.28125 0.3125 0
0.3125 0.3125 0
0.34375 0.34375 0
0.375 0.34375 0
0.34375 0.3125 0
0.375 0.3125 0
0.28125 0.28125 0
0.3125 0.28125 0
0.28125 0.25 0
0.3125 0.25 0
0.34375 0.28125 0
0.375 0.28125 0
0.34375 0.25 0
0.375 0.25 0
0.40625 0.34375 0
0.4375 0.34375 0
0.40625 0.3125 0
0.4375 0.3125 0
0.46875 0.34375 0
0.5 0.34375 0
0.46875 0.3125 0
0.5 0.3125 0
0.40625 0.28125 0
0.4375 0.28125 0
0.40625 0.25 0
0.4375 0.25 0
0.46875 0.28125 0
0.5 0.28125 0
0.46875 0.25 0
0.5 0.25 0
0.03125 0.21875 0
0.0625 0.21875 0
0.03125 0.1875 0
0.0625 0.1875 0
0.09375 0.21875 0
0.125 0.21875 0
0.09375 0.1875 0
0.125 0.1875 0
0.03125 0.15625 0
0.0625 0.15625 0
0.03125 0.125 0
0.0625 0.125 0
0.09375 0.15625 0
0.125 0.15625 0
0.09375 0.125 0
0.125 0.125 0
0.15625 0.21875 0
0.1875 0.21875 0
0.15625 0.1875 0
0.1875 0.1875 0
0.21875 0.21875 0
0.25 0.21875 0
0.21875 0.1875 0
0.25 0.1875 0
0.15625 0.15625 0
0.1875 0.15625 0
0.15625 0.125 0
0.1875 0.125 0
0.21875 0.15625 0
0.25 0.15625 0
0.21875 0.125 0
0.25 0.125 0
0.03125 0.09375 0
0.0625 0.09375 0
0.03125 0.0625 0
0.0625 0.0625 0
0.09375 0.09375 0
0.125 0.09375 0
0.09375 0.0625 0
0.125 0.0625 0
0.03125 0.03125 0
0.0625 0.03125 0
0.03125 0 0
0.0625 0 0
0.09375 0.03125 0
0.125 0.03125 0
0.09375 0 0
0.125 0 0
0.15625 0.09375 0
0.1875 0.09375 0
0.15625 0.0625 0
0.1875 0.0625 0
0.21875 0.09375 0
0.25 0.09375 0
0.21875 0.0625 0
0.25 0.0625 0
0.15625 0.03125 0
0.1875 0.03125 0
0.15625 0 0
0.1875 0 0
0.21875 0.03125 0
0.25 0.03125 0
0.21875 0 0
0.25 0 0
0.28125 0.21875 0
0.3125 0.21875 0
0.28125 0.1875 0
0.3125 0.1875 0
0.34375 0.21875 0
0.375 0.21875 0
0.34375 0.1875 0
0.375 0.1875 0
0.28125 0.15625 0
0.3125 0.15625 0
0.28125 0.125 0
0.3125 0.125 0
0.34375 0.15625 0
0.375 0.15625 0
0.34375 0.125 0
0.375 0.125 0
0.40625 0.21875 0
0.4375 0.21875 0
0.40625 0.1875 0
0.4375 0.1875 0
0.46875 0.21875 0
0.5 0.21875 0
0.46875 0.1875 0
0.5 0.1875 0
0.40625 0.15625 0
0.4375 0.15625 0
0.40625 0.125 0
0.4375 0.125 0
0.46875 0.15625 0
0.5 0.15625 0
0.46875 0.125 0
0.5 0.125 0
0.28125 0.09375 0
0.3125 0.09375 0
0.28125 0.0625 0
0.3125 0.0625 0
0.34375 0.09375 0
0.375 0.09375 0
0.34375 0.0625 0
0.375 0.0625 0
0.28125 0.03125 0
0.3125 0.03125 0
0.28125 0 0
0.3125 0 0
0.34375 0.03125 0
0.375 0.03125 0
0.34375 0 0
0.375 0 0
0.40625 0.09375 0
0.4375 0.09375 0
0.40625 0.0625 0
0.4375 0.0625 0
0.46875 0.09375 0
0.5 0.09375 0
0.46875 0.0625 0
0.5 0.0625 0
0.40625 0.03125 0
0.4375 0.03125 0
0.40625 0 0
0.4375 0 0
0.46875 0.03125 0
0.5 0.03125 0
0.46875 0 0
0.5 0 0
-0.5 -0.03125 0
-0.46875 -0.03125 0
-0.4375 -0.03125 0
-0.5 -0.0625 0
-0.46875 -0.0625 0
-0.4375 -0.0625 0
-0.40625 -0.03125 0
-0.375 -0.03125 0
-0.40625 -0.0625 0
-0.375 -0.0625 0
-0.5 -0.09375 0
-0.46875 -0.09375 0
-0.4375 -0.09375 0
-0.5 -0.125 0
-0.46875 -0.125 0
-0.4375 -0.125 0
-0.40625 -0.09375 0
-0.375 -0.09375 0
-0.40625 -0.125 0
-0.375 -0.125 0
-0.34375 -0.03125 0
-0.3125 -0.03125 0
-0.34375 -0.0625 0
-0.3125 -0.0625 0
-0.28125 -0.03125 0
-0.25 -0.03125 0
-0.28125 -0.0625 0
-0.25 -0.0625 0
-0.34375 -0.09375 0
-0.3125 -0.09375 0
-0.34375 -0.125 0
-0.3125 -0.125 0
-0.28125 -0.09375 0
-0.25 -0.09375 0
-0.28125 -0.125 0
-0.25 -0.125 0
-0.5 -0.15625 0
-0.46875 -0.15625 0
-0.4375 -0.15625 0
-0.5 -0.1875 0
-0.46875 -0.1875 0
-0.4375 -0.1875 0
-0.40625 -0.15625 0
-0.375 -0.15625 0
[...]
POINT_DATA 1089
SCALARS T float
LOOKUP_TABLE default
0
0
0
0
0
0
0
0
0
0
0
0
0
0
0
0
0
0
0
0
0
0
0
0
0
0
0
0
0
0
0
0
0
0
0
0
0
0
0
0
0
0
0
0
0
0
0
0
0
0
0
0
0
0
0
0
0
0
0
0
0
0
0
0
0
0
0
0
0
0
0
0
0
0
0
0
0
0
0
0
0
0
0
0
0
0
0
0
0
0
0
0
0
0
0
0
0
0
0
0
0
0
0
0
0
0
0
0
0
0
0
0
0
0
0
0
0
0
0
0
0
0
0
0
0
0
0
0
0
0
0
0
0
0
0
0
0
0
0
0
0
0
0
0
0
0
0
0
0
0
0
0
0
0
0
0
0
0
0
0
0
0
0
0
0
0
0
0
0
0
0
0
0
0
0
0
0
0
0
0
0
0
0
0
0
0
0
0
0
0
0
0
0
0
0
0
0
0
0
0
0
0
0
0
0
0
0
0
0
0
0
0
0
0
0.00139035
0.0777327
0.304296
0
0.0772957
0.00823851
0.305743
0.403382
0.801259
0.795858
0.998354
0
0
0
0
0
0
0
0
0
0
0
0
0
0
0
0
0
0
0
0
0
0
0
0
0
0
0
0
0
0
0
0
0.0489849
0.102506
0.524157
0.602506
0.0668448
0.0119334
0.553141
0.369078
0.975172
1
1
1
0.986297
0.857145
1
1
0
0
0.123374
0.00252544
0
0
0
0
0.513203
0.142354
0.888439
0.442127
0
0
0.0536873
0
0
0
0
0
0
0
0
0
0
0
0
0
0
0
0
0
0
0
0
0
0
0
0
0
0
0
0
0
0
0
0
0
0
0
0
0
0
0
0
0
0
0
0
0
0
0
0
0
0
0
0
0.00101188
0.0132885
0.145924
0.198184
0.579807
0
0
0
0
0
0
0
0
0.323362
0.345903
0.823362
0.845903
0.190849
0.0356725
0.658388
0.26695
0
0
0
0
0
0
0
0
0
0
0
0
0
0
0
0
0
0
0
0
0
0
0
0
0
0
0
0
0
0
0
0
0
0
0
0
0
0
0
0
0
0
0
0
0
0
0
0
0
0
0.0137384
0
0
0
0
0
0
0
0
0
0
0
0
0
0
0
0
0
0
0
0
0
0
0.0475998
0
0.108548
0.481483
0.933883
0.608548
1
0
0.0713351
0
0.00937514
0.544237
0.972901
0.273686
0.690104
1
1
1
1
0.967539
0.556841
1
0.646193
1
1
0.891777
0.878367
0.961104
0.539546
0.654595
0.250023
0
0
0
0
0.0414091
0.217203
0
0
0
0
0
0
0
0
0
0
0.391777
0.378367
0
0
0.193491
0.0311068
0
0
0
0
0.00513212
0.0116929
0
0
0.00656081
0
0.0893015
0
0.146193
0
0
0
0
0
0.0784422
0
0.00781196
0
0
0
0
0
0
0
0
0
0
0
0
0
0
0
0
0
0
0
0
0
0
0
0
0
0
0
0
0
0
0
0
0
0
0
0
0
0
0
0
0
0
0
0
0
0
0
0
0
0
0
0
0
0
0
0
0
0
0
0
0
0
0
0
0
0
0
0
0
0
0
0
0
0.0794578
0.549667
0.196477
0.696477
0.970209
1
1
1
0.275957
0.775957
0.303082
0.803082
1
1
1
1
0
0
0
0
0
0
0
0
0
0
0
0
0
0
0
0
0
0
0
0
0.28139
0.78139
0.203603
0.703603
1
1
1
1
0.0825387
0.55465
0.00794301
0.307023
0.972111
1
0.797404
0.998325
1
1
1
1
1
1
1
1
1
1
1
1
1
1
1
1
0.998611
0.701391
1
0.854707
0.20278
0
0.354707
0
1
0.936262
1
0.956099
0.436262
0
0.456099
0
1
1
1
1
1
1
1
1
1
1
1
1
1
1
1
0.998949
1
0.914632
1
0.808111
0.414632
0
0.308111
0
0.985681
0.627237
0.821236
0.344913
0.141556
0
0.0226255
0
0
0
0
0
0
0
0
0
0
0
0
0
0
0
0
0
0
0
0
0
0
0.0769681
0
0
0.402351
0.796459
0.0770579
0.300219
0
0
0
0
0
0.00208398
0
0
0
0
0
0
0
0
0
0
0
0
0
0
0
0
0
0
0
0
0
0
0
0
0
0
0
0
0
0
0
0
0
0
0
0
0
0
0.971077
1
0.511789
0.575455
0.966029
0.792116
0.505633
0.295945
0.0407126
0.0754545
0
0
0.0396037
0.00277772
0
0
0.412693
0.0866063
0.0771384
0
0
0
0
0
0
0
0
0
0
0
0
0
0
0
0
0
0
0
0
0
0
0
0
0
0
0
0
0
0
0
0
0
0
0
0
0
0
0
0
0
0
0
0
0
0
0
0
0
0
0.02767
0
0.175706
0
0
0
0
0
0.333124
0
0.40181
0.258751
0.434383
0.651655
0.92269
0.218755
0.0154533
0.543222
0.096481
0.833124
0.999959
0.879343
0.804088
0.635247
0.135288
0.380814
0.0542601
0
0
0
0
0
0.367235
0
0.167357
0
0
0
0
0
0.0168444
0
0
0.821442
0.531795
0.54535
0.387758
0.077587
0
0.00976561
0
0.168163
0.160092
0
0
0.00877349
0
0
0
0
0
0
0
0
0
0
0
0
0
0
0
0
0
0
0
0
0
0
0
0
0
0
0
0
0
0
0
0
0
0
0
0
0
0
0
0
0
0
0
0
0
0
0
0
0
0
0
0
0
0
0
0
0
0
0
0
0
0
0
0
0
0
0
0
0
0
0
0
0
0
0
0
0
0
0
0
0
0
0
0
0
0
0
0
0
0
0
0
0
0
0
0
0
0
0
0
0
0
0
0
0
0
0
0
0
0
0
0
0
0
0
0
0
0
0
0
0
0
0
0
0
0
0
0
0
0
0
0
0
0
0
0
0
0
0
0
0
0
0
0
0
0
0
0
0
0
0
0
0
0
0
0
0
0
0
0
0
0
0
0
0
0
0
0
0
0
0
0
0
0
0
0
0
0
0
0
0
0
0
0
0
0
0
0
0
0
0
0
0
0
0

SCALARS P float
LOOKUP_TABLE default
-0.00882193
-0.00915272
-0.00825603
-0.00863825
-0.00949626
-0.00904917
-0.00939075
-0.00965429
-0.00993452
-0.0098456
-0.00946551
-0.0101917
-0.00988059
-0.0102241
-0.0105131
-0.00993588
-0.0101358
-0.0103586
-0.0104478
-0.0105881
-0.0107599
-0.0105968
-0.0108406
-0.0109557
-0.0111662
-0.01052
-0.0102789
-0.0108118
-0.0106399
-0.0107881
-0.0110325
-0.0110439
-0.0109335
-0.0111883
-0.0111195
-0.0112279
-0.0113536
-0.0110775
-0.0112928
-0.0113795
-0.011582
-0.0114705
-0.0115942
-0.0117588
-0.0118948
-0.0109144
-0.0109999
-0.0111279
-0.0113233
-0.0113587
-0.0114506
-0.0112912
-0.0114808
-0.0115918
-0.0117739
-0.0116578
-0.0116492
-0.0117139
-0.0119032
-0.011856
-0.0119019
-0.0118446
-0.0120339
-0.0120339
-0.0122463
-0.0116852
-0.011891
-0.011985
-0.0122113
-0.0120826
-0.0122446
-0.0124348
-0.0126379
-0.0122691
-0.0125354
-0.0125252
-0.0128553
-0.0128109
-0.0130732
-0.0132081
-0.0135533
-0.0112209
-0.0111614
-0.0111238
-0.0110291
-0.0113921
-0.0113318
-0.0108965
-0.0107222
-0.0105556
-0.0102672
-0.0111718
-0.0109232
-0.0116497
-0.0116279
-0.0119769
-0.0119968
-0.0115277
-0.0113569
-0.0119529
-0.011851
-0.0101292
-0.00970702
-0.0096478
-0.00908142
-0.0106054
-0.0102422
-0.00914209
-0.00843072
-0.00864471
-0.00779513
-0.00985655
-0.00947554
-0.0111293
-0.0108633
-0.0117008
-0.0115168
-0.0105753
-0.0102891
-0.0113096
-0.0110998
-0.0123626
-0.0124282
-0.0128032
-0.0129201
-0.0124387
-0.0123979
-0.012985
-0.0130008
-0.0132989
-0.0134731
-0.013857
-0.0140972
-0.0135921
-0.0136585
-0.0142706
-0.0143793
-0.0123134
-0.0121966
-0.0129758
-0.0129176
-0.0120505
-0.0118947
-0.0128231
-0.0127132
-0.0136838
-0.013674
-0.0144467
-0.0144811
-0.0136255
-0.0135532
-0.014483
-0.0144429
-0.0120386
-0.0119595
-0.0119956
-0.0120461
-0.0119402
-0.0119729
-0.012141
-0.012394
-0.0121414
-0.0124519
-0.0119137
-0.0117792
-0.0118098
-0.011625
-0.0114545
-0.0114753
-0.0120061
-0.0123881
-0.0116927
-0.012154
-0.0127394
-0.0131631
-0.0128871
-0.013443
-0.0136268
-0.0140877
-0.0140664
-0.0146909
-0.0129415
-0.0136855
-0.012847
-0.0138407
-0.0145352
-0.0153888
-0.0150161
-0.0162254
-0.0111627
-0.0109435
-0.0109368
-0.0105132
-0.010227
-0.0101609
-0.0111587
-0.0116959
-0.0103451
-0.0109111
-0.00966847
-0.00929737
-0.00912452
-0.00864786
-0.00817213
-0.00782226
-0.00919895
-0.00968362
-0.00766257
-0.00780797
-0.0125434
-0.013906
-0.0118886
-0.0137377
-0.0155902
-0.0171469
-0.010112
0.00514384
-0.0107248
-0.00773516
-0.00812429
0.00775472
0.0125747
0.0401759
0.0372155
0.0510983
-0.0144933
-0.0148098
-0.0152325
-0.0156384
-0.0150342
-0.0151683
-0.0159043
-0.0160314
-0.0161144
-0.0166297
-0.0172304
-0.0178922
-0.0169096
-0.01696
-0.0181378
-0.0179622
-0.0152645
-0.0153391
-0.0161301
-0.0162432
-0.015406
-0.0154449
-0.0164245
-0.0167043
-0.0170078
-0.0171235
-0.0178119
-0.0177928
-0.0174253
-0.0180309
-0.0180658
-0.0187883
-0.0145133
-0.0108614
0.0206137
0.02607
-0.0139579
-0.0180432
0.0216914
0.00749691
0.0525988
0.0538891
0.0515839
0.051441
0.0520666
0.0413004
0.0506361
0.0490778
-0.0185817
-0.0182348
-0.010193
-0.0181749
-0.0182989
-0.0189785
-0.0180646
-0.0186639
0.0158921
-0.00879496
0.0394345
0.0103689
-0.0171195
-0.0175696
-0.0125056
-0.0156937
-0.0081762
-0.00719727
-0.00776132
-0.00666614
-0.009115
-0.00879704
-0.00741174
-0.00621533
-0.00714473
-0.00587083
-0.00853062
-0.00832867
-0.0100142
-0.00977443
-0.0108889
-0.010705
-0.00957472
-0.00942898
-0.0105448
-0.0104403
-0.00696607
-0.00563546
-0.00687958
-0.00552487
-0.00820136
-0.00814178
-0.00687971
-0.00553717
-0.00695065
-0.00565115
-0.00814138
-0.00818529
-0.00935494
-0.00933137
-0.0104278
-0.0104589
-0.00934806
-0.00938209
-0.0105214
-0.0105681
-0.0117209
-0.011568
-0.0125558
-0.0124096
-0.0114297
-0.0113837
-0.0122404
-0.0122466
-0.0133956
-0.0132591
-0.01428
-0.0138531
-0.0115453
0.00344969
0.00913271
0.0528423
-0.0114768
-0.0116057
-0.0124802
-0.0127573
-0.0117576
-0.0118221
-0.013091
-0.0132113
0.0234224
0.0256798
0.0810067
0.0842177
0.00700721
-0.011007
0.0622521
0.0153726
-0.00707768
-0.00585431
-0.00724425
-0.00611432
-0.00825102
-0.00833477
-0.00744783
-0.00641937
-0.00767804
-0.00675143
-0.00844547
-0.00857936
-0.00939351
-0.00939564
-0.0105264
-0.0104387
-0.00941439
-0.00945175
-0.0103588
-0.0102933
-0.00793355
-0.00710377
-0.00821021
-0.00746995
-0.00874203
-0.00893173
-0.00850709
-0.00784827
-0.00882193
-0.00821938
-0.0091488
-0.00939075
-0.00952219
-0.00962577
-0.0102682
-0.0102842
-0.00976453
-0.00993588
-0.010345
-0.0104478
-0.011689
-0.0114759
-0.0129407
-0.0125344
-0.0112773
-0.0110956
-0.0121793
-0.0118573
-0.0142981
-0.0135565
-0.0143284
-0.0146993
-0.0130139
-0.0125419
-0.0138307
-0.0131638
-0.0109687
-0.0108946
-0.0116164
-0.0114467
-0.0108777
-0.0109144
-0.0113508
-0.0113233
-0.0121833
-0.0119183
-0.0126666
-0.0122996
-0.0117455
-0.0116578
-0.0120488
-0.0119032
-0.015388
-0.00888645
-0.0170926
-0.00300083
0.0414399
0.0932206
0.0559697
0.100677
-0.0190445
-0.0105868
-0.0200067
-0.0203706
0.0470578
0.0978216
0.0114172
0.0610572
0.101747
0.102958
0.10078
0.10104
0.0999499
0.0503127
0.101665
0.0603571
0.0993622
0.0985359
0.0828443
0.0802411
0.0941469
0.045878
0.0554599
0.0103033
-0.0201629
-0.0219385
-0.0200069
-0.0221048
-0.0188983
0.000641221
-0.02496
-0.0276321
-0.0191724
-0.0218048
-0.0177023
-0.020972
-0.0258741
-0.0303116
-0.0265819
-0.0335929
0.0199108
0.0184584
-0.0300838
-0.02945
-0.000412441
-0.0167834
-0.0255967
-0.0225122
-0.0369521
-0.0375905
-0.0438233
-0.0449816
-0.0301614
-0.0247047
-0.0345003
-0.0266448
-0.00589576
-0.0154445
0.0013067
-0.0155046
-0.0143946
-0.0136138
-0.0145837
-0.0138268
-0.00721401
-0.015763
-0.0165356
-0.0162454
-0.0148129
-0.0139738
-0.0150815
-0.014053
-0.0130089
-0.0125559
-0.0131762
-0.0126652
-0.0122356
-0.0120386
-0.012288
-0.0120461
-0.013237
-0.0126471
-0.0131849
-0.0124928
-0.0122044
-0.0119137
-0.0119728
-0.011625
-0.018583
-0.0168048
-0.0198504
-0.0173518
-0.0152995
-0.0140251
-0.0153829
-0.013828
-0.0206982
-0.0174184
-0.0210421
-0.0169445
-0.0150553
-0.0132994
-0.0142564
-0.0123936
-0.0129915
-0.0121824
-0.0126158
-0.0116909
-0.0115762
-0.0111627
-0.0109991
-0.0105132
-0.0119706
-0.0109749
-0.0110323
-0.0100304
-0.0102225
-0.00966847
-0.00925758
-0.00864786
-0.00749324
-0.0069061
-0.00631818
-0.00631619
-0.00563297
-0.00479525
-0.00577478
-0.00527781
-0.00377247
-0.00245416
-0.00522924
-0.00452088
-0.00352167
-0.00435718
-0.00373975
-0.00276023
-0.00210407
-0.000107807
-0.00126059
0.000902863
-0.00172096
0.0220793
0.00626581
0.0288376
0.0453434
0.0486884
0.0447381
0.0468747
0.0113055
0.0318531
0.0130997
0.0331263
0.0435088
0.0459393
0.043581
0.0460834
-0.00378514
-0.00337302
-0.00260563
-0.00353509
-0.0033908
-0.00296044
-0.00139282
0.000390927
-0.0022543
-0.00119971
-0.00357845
-0.00370427
-0.00364034
-0.00383724
-0.00419411
-0.00445452
-0.00346309
-0.003203
-0.00471704
-0.00513083
0.0121285
0.0331044
0.00784361
0.0308049
0.0447278
0.0471559
0.0467367
0.0490827
0.000434194
0.024536
-0.00554
0.0107568
0.0480091
0.0517073
0.040676
0.0550101
0.0494814
0.0495663
0.0480606
0.0483382
0.0488853
0.0474035
0.0478197
0.0463766
0.047438
0.0478891
0.0476912
0.0482535
0.0475613
0.0462956
0.0480812
0.0470366
0.0449723
0.025383
0.0440597
0.0331279
-0.00203123
-0.0122634
0.0085196
-0.00759816
0.0442261
0.0375644
0.0452863
0.0400148
0.0147482
-0.00374745
0.0180663
-0.000502929
0.0487424
0.049349
0.0505431
0.0511354
0.0492462
0.0483406
0.0509968
0.0501506
0.0530324
0.0535732
0.0562416
0.056607
0.0533391
0.0525362
0.0562195
0.0554135
0.0467682
0.0401645
0.0485638
0.037282
0.0184529
0.00217571
0.0150317
0.00337639
0.0500872
0.03027
0.043187
0.0158197
0.00729078
0.00288846
0.00035885
0.00142522
-0.00424641
-0.004764
-0.00525196
-0.00474106
-0.00535161
-0.0059655
-0.00579393
-0.00659152
-0.00664088
-0.00754033
-0.0052901
-0.00593408
-0.00659461
-0.00586443
-0.00649917
-0.00715171
-0.00731153
-0.00818966
-0.00784626
-0.00864121
-0.00775758
-0.00454986
-0.00868772
-0.0105827
0.0164055
0.0448448
-0.00659326
0.00936126
-0.00923288
-0.0106667
-0.00952651
-0.0105766
-0.0123257
-0.0136567
-0.0116866
-0.0127021
-0.0064537
-0.00704843
-0.00765839
-0.00704854
-0.00758585
-0.00813515
-0.00829617
-0.00898962
-0.00870042
-0.00929063
-0.00764507
-0.00811557
-0.00859617
-0.00821938
-0.00863825
-0.00904917
-0.0090854
-0.00958193
-0.00946551
-0.00988059
-0.00972516
-0.0105148
-0.00989034
-0.0104867
-0.011279
-0.0118916
-0.0110242
-0.0114167
-0.0100698
-0.0105291
-0.0102789
-0.0106399
-0.0109187
-0.0111797
-0.0109335
-0.0111195
0.0582333
0.0601123
0.0252829
0.0304195
0.0572298
0.0444634
0.0252039
0.0105673
-0.0109509
-0.00746284
-0.0133198
-0.0130845
-0.00938897
-0.0107503
-0.0119983
-0.0104383
0.0191838
0.000278017
-0.00316042
-0.00594517
-0.00223859
-6.17183e-05
-0.0035085
-0.00151073
-0.00883176
-0.00656045
-0.00877092
-0.00704775
-0.00453337
-0.00278481
-0.00541972
-0.00394522
-0.0121917
-0.0119705
-0.0115675
-0.0113706
-0.0112221
-0.0101239
-0.010825
-0.0100176
-0.0112544
-0.011088
-0.0111614
-0.0110291
-0.01068
-0.010077
-0.0107222
-0.0102672
-0.00887595
-0.00754188
-0.00906454
-0.00802882
-0.00623073
-0.00500912
-0.00698453
-0.00599043
-0.00934762
-0.00854211
-0.00970702
-0.00908142
-0.00771466
-0.00691472
-0.00843072
-0.00779513
-0.014776
-0.018422
-0.0101259
-0.0126686
-0.0249812
-0.029228
-0.0167885
0.000745276
-0.00628645
-0.00880099
-0.00269216
-0.00549931
-0.0123571
0.0255568
-0.0106937
0.0215121
0.0173322
0.0529861
0.0916428
0.145764
0.00978899
-0.0220645
0.0714857
-0.000590952
0.0961514
0.123783
0.0683168
0.0831489
0.0807285
0.0143761
0.0588833
0.0154277
0.00144468
0.00130195
0.00392942
0.00561799
0.000160187
0.015459
0.00761175
0.015564
0.00423907
0.00615792
0.00326946
0.00541814
0.00828621
0.0151392
0.00822126
0.0120438
0.0335787
0.0459823
0.0251118
0.0326215
0.038218
0.0157483
0.0263889
0.0125628
0.0226506
0.0238048
0.0139781
0.0152013
0.0182936
0.0112264
0.0143632
0.00999512
-0.0188819
-0.0148861
-0.0132473
-0.0110827
-0.0124427
-0.0108494
-0.00980807
-0.00888652
-0.0102713
-0.00826125
-0.00117188
-0.00287366
-0.00730471
-0.00684399
-0.00372464
-0.00438346
-0.00969599
-0.0088325
-0.00813101
-0.00750863
-0.00812144
-0.00749324
-0.00692244
-0.00631619
-0.0064744
-0.00614193
-0.00470815
-0.00481181
-0.00574568
-0.00522924
-0.00469725
-0.00435718
0.0083436
0.00271864
0.0079418
0.00385719
-0.000326412
-0.00212615
0.00100963
-0.000897612
0.00753922
0.00422371
0.00660314
0.00384666
0.00156821
-0.000336334
0.00150908
-0.000267895
-0.00315205
-0.00369792
-0.00216619
-0.00296602
-0.00389048
-0.00378514
-0.00340134
-0.00353509
-0.00168888
-0.0026258
-0.00160607
-0.00260139
-0.00323423
-0.00357845
-0.00332471
-0.00383724
0.0018827
0.00388684
0.000327733
0.00210598
0.00633107
0.00871184
0.004052
0.0056555
-0.00116479
0.000339924
-0.00257106
-0.00132177
0.00183706
0.00296826
-0.000155756
0.000711587
0.0103989
0.0111369
0.00691464
0.00737972
0.0101084
0.00749056
0.00664376
0.00507399
0.00386902
0.00418173
0.00136808
0.00159747
0.00370902
0.00275028
0.0013199
0.000709893
-0.00386816
-0.00284357
-0.005059
-0.00422714
-0.00192786
-0.00124517
-0.0035026
-0.00295695
-0.0061635
-0.00549456
-0.00719727
-0.00666614
-0.00492124
-0.00448589
-0.00621533
-0.00587083
-0.000749609
-0.000566482
-0.00257283
-0.00241728
-0.000727958
-0.00112927
-0.00250217
-0.00276858
-0.00418504
-0.00405297
-0.00563546
-0.00552487
-0.00409221
-0.00426846
-0.00553717
-0.00565115
0.00490869
0.00279958
0.00321021
0.00158558
0.000904087
-0.000637326
5.91445e-05
-0.0012507
0.00145446
0.000230636
-0.000190054
-0.00111056
-0.000969667
-0.00205339
-0.00205096
-0.00293952
-0.00187227
-0.00285185
-0.00235814
-0.00328545
-0.00362618
-0.00424641
-0.00406656
-0.00474106
-0.00301603
-0.0038614
-0.00376344
-0.0045171
-0.00461006
-0.0052901
-0.00521136
-0.00586443
-0.00175458
-0.00244085
-0.0032047
-0.00371391
-0.0031689
-0.00388539
-0.00427343
-0.00484422
-0.00457003
-0.00494064
-0.00585431
-0.00611432
-0.00536147
-0.00580518
-0.00641937
-0.00675143
-0.00457533
-0.00522952
-0.00541232
-0.0059681
-0.00585222
-0.0064537
-0.00651194
-0.00704854
-0.00626078
-0.00671984
-0.00710377
-0.00746995
-0.00718089
-0.00764507
-0.00784827
-0.00825603

SCALARS U float
LOOKUP_TABLE default
0.0237685
0.0242016
0.0238738
0.0243517
0.0246023
0.0248349
0.0236935
0.0240816
0.0244224
0.0249394
0.0252815
0.0251631
0.0256329
0.0246852
0.0248265
0.0236547
0.0240128
0.0243208
0.0236515
0.0239988
0.0243038
0.0245465
0.0246492
0.0245306
0.0246366
0.0252053
0.0258033
0.0249887
0.025686
0.0247918
0.0245241
0.0244278
0.0251359
0.0234788
0.0240656
0.023971
0.023111
0.0245816
0.0242973
0.0245754
0.0243022
0.0237594
0.0229565
0.0237834
0.0230086
0.0236693
0.024032
0.0243681
0.0236754
0.0240924
0.0245007
0.0246356
0.0247873
0.0248539
0.0250978
0.0236383
0.0241577
0.0246836
0.0235244
0.0241976
0.024883
0.02517
0.0255562
0.0255455
0.0261204
0.0247712
0.0245356
0.0251699
0.0250032
0.0240397
0.0232666
0.0245387
0.0237439
0.0257652
0.0257064
0.0265168
0.0266148
0.0252887
0.0244519
0.0262744
0.0253873
0.022186
0.0225307
0.0206578
0.0206819
0.0219807
0.0206619
0.019055
0.01875
0.0175511
0.0169863
0.0192717
0.017936
0.0219199
0.0207159
0.0220056
0.0208346
0.0194368
0.0181805
0.0195779
0.0183213
0.0162767
0.0155648
0.015298
0.0145504
0.0167557
0.0157911
0.0146263
0.0139218
0.0142331
0.0136039
0.0150684
0.014584
0.0170286
0.0160314
0.0171359
0.0160596
0.0152201
0.014601
0.0151178
0.0143066
0.0222418
0.0210287
0.022644
0.0213179
0.0197141
0.0183878
0.019875
0.0184353
0.0232225
0.0217108
0.0239817
0.0222184
0.0200697
0.0184816
0.0203111
0.0185515
0.017123
0.0159433
0.0170966
0.0158793
0.0148594
0.0138264
0.0147761
0.013621
0.0171079
0.016001
0.0172343
0.0165171
0.0151358
0.0141842
0.0164227
0.0166929
0.0233514
0.0241919
0.0250473
0.0231457
0.0240973
0.0250734
0.0259004
0.026686
0.0260753
0.0270475
0.0229077
0.0238368
0.0248097
0.0225514
0.0232811
0.0240764
0.0258534
0.0269665
0.0250395
0.026331
0.0273094
0.0276274
0.0279375
0.0286141
0.0274275
0.026512
0.0287322
0.0278896
0.0282609
0.0296742
0.0284763
0.0314975
0.0305365
0.0299428
0.0338193
0.0334726
0.0219506
0.0223352
0.0228165
0.0210583
0.021029
0.0211563
0.0236799
0.0254139
0.0220013
0.0244796
0.019984
0.0195772
0.0194216
0.0189158
0.0182533
0.0178896
0.0202782
0.0234158
0.0184304
0.0211632
0.0292979
0.0348787
0.0306058
0.037839
0.0383294
0.0368246
0.0386738
0.0328871
0.0305941
0.035948
0.0260071
0.0254486
0.0305086
0.0211499
0.0162551
0.0105545
0.0249036
0.0228339
0.0260634
0.0235856
0.0205722
0.018565
0.0207645
0.0182762
0.0277757
0.0245886
0.0303835
0.0257807
0.0206929
0.0171683
0.019882
0.014269
0.0173198
0.0171425
0.0169453
0.0171773
0.0181574
0.0203553
0.0190221
0.0224529
0.0154307
0.0159189
0.0115684
0.0124919
0.0181206
0.0212942
0.0154503
0.017879
0.031549
0.0252779
0.0260684
0.021339
0.017811
0.00987856
0.0171043
0.0105024
0.0173968
0.0183917
0.0133918
0.019282
0.021141
0.0208839
0.0264503
0.0326749
0.00529342
0.00658865
0.00305096
0.00161906
0.0118704
0.0157284
0.00851382
0.0156754
0.0132575
0.00600479
0.0306772
0.0215434
0.00957156
0.0180115
0.0186689
0.0243833
0.0141028
0.0135602
0.0142159
0.013763
0.0143445
0.0143486
0.0145697
0.0142096
0.0151735
0.0148965
0.0146119
0.015194
0.0142074
0.0140612
0.01368
0.0132494
0.0142124
0.0148517
0.0131114
0.0138337
0.0160221
0.0158177
0.0170375
0.0169171
0.0161183
0.0172447
0.0180535
0.0180008
0.0189937
0.0189954
0.0183358
0.0192742
0.0160952
0.0176546
0.015828
0.0184562
0.0190438
0.0200254
0.0205698
0.0216059
0.0128759
0.0118549
0.0122586
0.00992716
0.0109062
0.0115872
0.00713782
0.00781033
0.0127402
0.0093269
0.0169732
0.0159386
0.00570473
0.007456
0.0157292
0.0184518
0.0150907
0.0199952
0.0138146
0.0221582
0.0236086
0.0245668
0.0283821
0.0293842
0.0141169
0.0221396
0.019344
0.0175236
0.0292757
0.0312237
0.0173558
0.0189751
0.0198313
0.0198784
0.0205758
0.0206404
0.0200476
0.0207243
0.0212414
0.0213077
0.0218288
0.021889
0.0213337
0.0218749
0.0206593
0.0211707
0.0218635
0.021994
0.021637
0.0220566
0.0221781
0.0223761
0.022361
0.0224143
0.0228515
0.0229041
0.0223735
0.0228366
0.0233181
0.0233824
0.0237685
0.023853
0.0232763
0.0236935
0.0224683
0.022871
0.0226376
0.0229458
0.0232695
0.0236547
0.0232921
0.0236515
0.0238219
0.0231244
0.0266586
0.0242996
0.0228467
0.0227436
0.0233157
0.0229078
0.0277005
0.0242449
0.0197458
0.0199153
0.0229355
0.0225122
0.0204325
0.0210181
0.0228198
0.023021
0.0228528
0.0230002
0.0233194
0.0236693
0.0232951
0.0236754
0.0225429
0.0227825
0.0216478
0.0222588
0.023166
0.0236383
0.0228789
0.0235244
0.0238165
0.0282805
0.0279712
0.0367371
0.0330985
0.0338229
0.044521
0.041975
0.025609
0.0330501
0.0188439