# vtk DataFile Version 2.0
Gerris simulation version 1.3.2 (131206-155120)
ASCII
DATASET UNSTRUCTURED_GRID

POINTS 1089 float
-0.5 0.46875 0
-0.46875 0.46875 0
-0.5 0.5 0
-0.46875 0.5 0
-0.4375 0.46875 0
-0.4375 0.5 0
-0.5 0.4375 0
-0.46875 0.4375 0
-0.4375 0.4375 0
-0.40625 0.46875 0
-0.40625 0.5 0
-0.375 0.46875 0
-0.375 0.5 0
-0.40625 0.4375 0
-0.375 0.4375 0
-0.5 0.40625 0
-0.46875 0.40625 0
-0.4375 0.40625 0
-0.5 0.375 0
-0.46875 0.375 0
-0.4375 0.375 0
-0.40625 0.40625 0
-0.375 0.40625 0
-0.40625 0.375 0
-0.375 0.375 0
-0.34375 0.46875 0
-0.34375 0.5 0
-0.3125 0.46875 0
-0.3125 0.5 0
-0.34375 0.4375 0
-0.3125 0.4375 0
-0.28125 0.46875 0
-0.28125 0.5 0
-0.25 0.46875 0
-0.25 0.5 0
-0.28125 0.4375 0
-0.25 0.4375 0
-0.34375 0.40625 0
-0.3125 0.40625 0
-0.34375 0.375 0
-0.3125 0.375 0
-0.28125 0.40625 0
-0.25 0.40625 0
-0.28125 0.375 0
-0.25 0.375 0
-0.5 0.34375 0
-0.46875 0.34375 0
-0.4375 0.34375 0
-0.5 0.3125 0
-0.46875 0.3125 0
-0.4375 0.3125 0
-0.40625 0.34375 0
-0.375 0.34375 0
-0.40625 0.3125 0
-0.375 0.3125 0
-0.5 0.28125 0
-0.46875 0.28125 0
-0.4375 0.28125 0
-0.5 0.25 0
-0.46875 0.25 0
-0.4375 0.25 0
-0.40625 0.28125 0
-0.375 0.28125 0
-0.40625 0.25 0
-0.375 0.25 0
-0.34375 0.34375 0
-0.3125 0.34375 0
-0.34375 0.3125 0
-0.3125 0.3125 0
-0.28125 0.34375 0
-0.25 0.34375 0
-0.28125 0.3125 0
-0.25 0.3125 0
-0.34375 0.28125 0
-0.3125 0.28125 0
-0.34375 0.25 0
-0.3125 0.25 0
-0.28125 0.28125 0
-0.25 0.28125 0
-0.28125 0.25 0
-0.25 0.25 0
-0.21875 0.46875 0
-0.21875 0.5 0
-0.1875 0.46875 0
-0.1875 0.5 0
-0.21875 0.4375 0
-0.1875 0.4375 0
-0.15625 0.46875 0
-0.15625 0.5 0
-0.125 0.46875 0
-0.125 0.5 0
-0.15625 0.4375 0
-0.125 0.4375 0
-0.21875 0.40625 0
-0.1875 0.40625 0
-0.21875 0.375 0
-0.1875 0.375 0
-0.15625 0.40625 0
-0.125 0.40625 0
-0.15625 0.375 0
-0.125 0.375 0
-0.09375 0.46875 0
-0.09375 0.5 0
-0.0625 0.46875 0
-0.0625 0.5 0
-0.09375 0.4375 0
-0.0625 0.4375 0
-0.03125 0.46875 0
-0.03125 0.5 0
0 0.46875 0
0 0.5 0
-0.03125 0.4375 0
0 0.4375 0
-0.09375 0.40625 0
-0.0625 0.40625 0
-0.09375 0.375 0
-0.0625 0.375 0
-0.03125 0.40625 0
0 0.40625 0
-0.03125 0.375 0
0 0.375 0
-0.21875 0.34375 0
-0.1875 0.34375 0
-0.21875 0.3125 0
-0.1875 0.3125 0
-0.15625 0.34375 0
-0.125 0.34375 0
-0.15625 0.3125 0
-0.125 0.3125 0
-0.21875 0.28125 0
-0.1875 0.28125 0
-0.21875 0.25 0
-0.1875 0.25 0
-0.15625 0.28125 0
-0.125 0.28125 0
-0.15625 0.25 0
-0.125 0.25 0
-0.09375 0.34375 0
-0.0625 0.34375 0
-0.09375 0.3125 0
-0.0625 0.3125 0
-0.03125 0.34375 0
0 0.34375 0
-0.03125 0.3125 0
0 0.3125 0
-0.09375 0.28125 0
-0.0625 0.28125 0
-0.09375 0.25 0
-0.0625 0.25 0
-0.03125 0.28125 0
0 0.28125 0
-0.03125 0.25 0
0 0.25 0
-0.5 0.21875 0
-0.46875 0.21875 0
-0.4375 0.21875 0
-0.5 0.1875 0
-0.46875 0.1875 0
-0.4375 0.1875 0
-0.40625 0.21875 0
-0.375 0.21875 0
-0.40625 0.1875 0
-0.375 0.1875 0
-0.5 0.15625 0
-0.46875 0.15625 0
-0.4375 0.15625 0
-0.5 0.125 0
-0.46875 0.125 0
-0.4375 0.125 0
-0.40625 0.15625 0
-0.375 0.15625 0
-0.40625 0.125 0
-0.375 0.125 0
-0.34375 0.21875 0
-0.3125 0.21875 0
-0.34375 0.1875 0
-0.3125 0.1875 0
-0.28125 0.21875 0
-0.25 0.21875 0
-0.28125 0.1875 0
-0.25 0.1875 0
-0.34375 0.15625 0
-0.3125 0.15625 0
-0.34375 0.125 0
-0.3125 0.125 0
-0.28125 0.15625 0
-0.25 0.15625 0
-0.28125 0.125 0
-0.25 0.125 0
-0.5 0.09375 0
-0.46875 0.09375 0
-0.4375 0.09375 0
-0.5 0.0625 0
-0.46875 0.0625 0
-0.4375 0.0625 0
-0.40625 0.09375 0
-0.375 0.09375 0
-0.40625 0.0625 0
-0.375 0.0625 0
-0.5 0.03125 0
-0.46875 0.03125 0
-0.4375 0.03125 0
-0.5 0 0
-0.46875 0 0
-0.4375 0 0
-0.40625 0.03125 0
-0.375 0.03125 0
-0.40625 0 0
-0.375 0 0
-0.34375 0.09375 0
-0.3125 0.09375 0
-0.34375 0.0625 0
-0.3125 0.0625 0
-0.28125 0.09375 0
-0.25 0.09375 0
-0.28125 0.0625 0
-0.25 0.0625 0
-0.34375 0.03125 0
-0.3125 0.03125 0
-0.34375 0 0
-0.3125 0 0
-0.28125 0.03125 0
-0.25 0.03125 0
-0.28125 0 0
-0.25 0 0
-0.21875 0.21875 0
-0.1875 0.21875 0
-0.21875 0.1875 0
-0.1875 0.1875 0
-0.15625 0.21875 0
-0.125 0.21875 0
-0.15625 0.1875 0
-0.125 0.1875 0
-0.21875 0.15625 0
-0.1875 0.15625 0
-0.21875 0.125 0
-0.1875 0.125 0
-0.15625 0.15625 0
-0.125 0.15625 0
-0.15625 0.125 0
-0.125 0.125 0
-0.09375 0.21875 0
-0.0625 0.21875 0
-0.09375 0.1875 0
-0.0625 0.1875 0
-0.03125 0.21875 0
0 0.21875 0
-0.03125 0.1875 0
0 0.1875 0
-0.09375 0.15625 0
-0.0625 0.15625 0
-0.09375 0.125 0
-0.0625 0.125 0
-0.03125 0.15625 0
0 0.15625 0
-0.03125 0.125 0
0 0.125 0
-0.21875 0.09375 0
-0.1875 0.09375 0
-0.21875 0.0625 0
-0.1875 0.0625 0
-0.15625 0.09375 0
-0.125 0.09375 0
-0.15625 0.0625 0
-0.125 0.0625 0
-0.21875 0.03125 0
-0.1875 0.03125 0
-0.21875 0 0
-0.1875 0 0
-0.15625 0.03125 0
-0.125 0.03125 0
-0.15625 0 0
-0.125 0 0
-0.09375 0.09375 0
-0.0625 0.09375 0
-0.09375 0.0625 0
-0.0625 0.0625 0
-0.03125 0.09375 0
0 0.09375 0
-0.03125 0.0625 0
0 0.0625 0
-0.09375 0.03125 0
-0.0625 0.03125 0
-0.09375 0 0
-0.0625 0 0
-0.03125 0.03125 0
0 0.03125 0
-0.03125 0 0
0 0 0
0.03125 0.46875 0
0.03125 0.5 0
0.0625 0.46875 0
0.0625 0.5 0
0.03125 0.4375 0
0.0625 0.4375 0
0.09375 0.46875 0
0.09375 0.5 0
0.125 0.46875 0
0.125 0.5 0
0.09375 0.4375 0
0.125 0.4375 0
0.03125 0.40625 0
0.0625 0.40625 0
0.03125 0.375 0
0.0625 0.375 0
0.09375 0.40625 0
0.125 0.40625 0
0.09375 0.375 0
0.125 0.375 0
0.15625 0.46875 0
0.15625 0.5 0
0.1875 0.46875 0
0.1875 0.5 0
0.15625 0.4375 0
0.1875 0.4375 0
0.21875 0.46875 0
0.21875 0.5 0
0.25 0.46875 0
0.25 0.5 0
0.21875 0.4375 0
0.25 0.4375 0
0.15625 0.40625 0
0.1875 0.40625 0
0.15625 0.375 0
0.1875 0.375 0
0.21875 0.40625 0
0.25 0.40625 0
0.21875 0.375 0
0.25 0.375 0
0.03125 0.34375 0
0.0625 0.34375 0
0.03125 0.3125 0
0.0625 0.3125 0
0.09375 0.34375 0
0.125 0.34375 0
0.09375 0.3125 0
0.125 0.3125 0
0.03125 0.28125 0
0.0625 0.28125 0
0.03125 0.25 0
0.0625 0.25 0
0.09375 0.28125 0
0.125 0.28125 0
0.09375 0.25 0
0.125 0.25 0
0.15625 0.34375 0
0.1875 0.34375 0
0.15625 0.3125 0
0.1875 0.3125 0
0.21875 0.34375 0
0.25 0.34375 0
0.21875 0.3125 0
0.25 0.3125 0
0.15625 0.28125 0
0.1875 0.28125 0
0.15625 0.25 0
0.1875 0.25 0
0.21875 0.28125 0
0.25 0.28125 0
0.21875 0.25 0
0.25 0.25 0
0.28125 0.46875 0
0.28125 0.5 0
0.3125 0.46875 0
0.3125 0.5 0
0.28125 0.4375 0
0.3125 0.4375 0
0.34375 0.46875 0
0.34375 0.5 0
0.375 0.46875 0
0.375 0.5 0
0.34375 0.4375 0
0.375 0.4375 0
0.28125 0.40625 0
0.3125 0.40625 0
0.28125 0.375 0
0.3125 0.375 0
0.34375 0.40625 0
0.375 0.40625 0
0.34375 0.375 0
0.375 0.375 0
0.40625 0.46875 0
0.40625 0.5 0
0.4375 0.46875 0
0.4375 0.5 0
0.40625 0.4375 0
0.4375 0.4375 0
0.46875 0.46875 0
0.46875 0.5 0
0.5 0.46875 0
0.5 0.5 0
0.46875 0.4375 0
0.5 0.4375 0
0.40625 0.40625 0
0.4375 0.40625 0
0.40625 0.375 0
0.4375 0.375 0
0.46875 0.40625 0
0.5 0.40625 0
0.46875 0.375 0
0.5 0.375 0
0.28125 0.34375 0
0.3125 0.34375 0
0.28125 0.3125 0
0.3125 0.3125 0
0.34375 0.34375 0
0.375 0.34375 0
0.34375 0.3125 0
0.375 0.3125 0
0.28125 0.28125 0
0.3125 0.28125 0
0.28125 0.25 0
0.3125 0.25 0
0.34375 0.28125 0
0.375 0.28125 0
0.34375 0.25 0
0.375 0.25 0
0.40625 0.34375 0
0.4375 0.34375 0
0.40625 0.3125 0
0.4375 0.3125 0
0.46875 0.34375 0
0.5 0.34375 0
0.46875 0.3125 0
0.5 0.3125 0
0.40625 0.28125 0
0.4375 0.28125 0
0.40625 0.25 0
0.4375 0.25 0
0.46875 0.28125 0
0.5 0.28125 0
0.46875 0.25 0
0.5 0.25 0
0.03125 0.21875 0
0.0625 0.21875 0
0.03125 0.1875 0
0.0625 0.1875 0
0.09375 0.21875 0
0.125 0.21875 0
0.09375 0.1875 0
0.125 0.1875 0
0.03125 0.15625 0
0.0625 0.15625 0
0.03125 0.125 0
0.0625 0.125 0
0.09375 0.15625 0
0.125 0.15625 0
0.09375 0.125 0
0.125 0.125 0
0.15625 0.21875 0
0.1875 0.21875 0
0.15625 0.1875 0
0.1875 0.1875 0
0.21875 0.21875 0
0.25 0.21875 0
0.21875 0.1875 0
0.25 0.1875 0
0.15625 0.15625 0
0.1875 0.15625 0
0.15625 0.125 0
0.1875 0.125 0
0.21875 0.15625 0
0.25 0.15625 0
0.21875 0.125 0
0.25 0.125 0
0.03125 0.09375 0
0.0625 0.09375 0
0.03125 0.0625 0
0.0625 0.0625 0
0.09375 0.09375 0
0.125 0.09375 0
0.09375 0.0625 0
0.125 0.0625 0
0.03125 0.03125 0
0.0625 0.03125 0
0.03125 0 0
0.0625 0 0
0.09375 0.03125 0
0.125 0.03125 0
0.09375 0 0
0.125 0 0
0.15625 0.09375 0
0.1875 0.09375 0
0.15625 0.0625 0
0.1875 0.0625 0
0.21875 0.09375 0
0.25 0.09375 0
0.21875 0.0625 0
0.25 0.0625 0
0.15625 0.03125 0
0.1875 0.03125 0
0.15625 0 0
0.1875 0 0
0.21875 0.03125 0
0.25 0.03125 0
0.21875 0 0
0.25 0 0
0.28125 0.21875 0
0.3125 0.21875 0
0.28125 0.1875 0
0.3125 0.1875 0
0.34375 0.21875 0
0.375 0.21875 0
0.34375 0.1875 0
0.375 0.1875 0
0.28125 0.15625 0
0.3125 0.15625 0
0.28125 0.125 0
0.3125 0.125 0
0.34375 0.15625 0
0.375 0.15625 0
0.34375 0.125 0
0.375 0.125 0
0.40625 0.21875 0
0.4375 0.21875 0
0.40625 0.1875 0
0.4375 0.1875 0
0.46875 0.21875 0
0.5 0.21875 0
0.46875 0.1875 0
0.5 0.1875 0
0.40625 0.15625 0
0.4375 0.15625 0
0.40625 0.125 0
0.4375 0.125 0
0.46875 0.15625 0
0.5 0.15625 0
0.46875 0.125 0
0.5 0.125 0
0.28125 0.09375 0
0.3125 0.09375 0
0.28125 0.0625 0
0.3125 0.0625 0
0.34375 0.09375 0
0.375 0.09375 0
0.34375 0.0625 0
0.375 0.0625 0
0.28125 0.03125 0
0.3125 0.03125 0
0.28125 0 0
0.3125 0 0
0.34375 0.03125 0
0.375 0.03125 0
0.34375 0 0
0.375 0 0
0.40625 0.09375 0
0.4375 0.09375 0
0.40625 0.0625 0
0.4375 0.0625 0
0.46875 0.09375 0
0.5 0.09375 0
0.46875 0.0625 0
0.5 0.0625 0
0.40625 0.03125 0
0.4375 0.03125 0
0.40625 0 0
0.4375 0 0
0.46875 0.03125 0
0.5 0.03125 0
0.46875 0 0
0.5 0 0
-0.5 -0.03125 0
-0.46875 -0.03125 0
-0.4375 -0.03125 0
-0.5 -0.0625 0
-0.46875 -0.0625 0
-0.4375 -0.0625 0
-0.40625 -0.03125 0
-0.375 -0.03125 0
-0.40625 -0.0625 0
-0.375 -0.0625 0
-0.5 -0.09375 0
-0.46875 -0.09375 0
-0.4375 -0.09375 0
-0.5 -0.125 0
-0.46875 -0.125 0
-0.4375 -0.125 0
-0.40625 -0.09375 0
-0.375 -0.09375 0
-0.40625 -0.125 0
-0.375 -0.125 0
-0.34375 -0.03125 0
-0.3125 -0.03125 0
-0.34375 -0.0625 0
-0.3125 -0.0625 0
-0.28125 -0.03125 0
-0.25 -0.03125 0
-0.28125 -0.0625 0
-0.25 -0.0625 0
-0.34375 -0.09375 0
-0.3125 -0.09375 0
-0.34375 -0.125 0
-0.3125 -0.125 0
-0.28125 -0.09375 0
-0.25 -0.09375 0
-0.28125 -0.125 0
-0.25 -0.125 0
-0.5 -0.15625 0
-0.46875 -0.15625 0
-0.4375 -0.15625 0
-0.5 -0.1875 0
-0.46875 -0.1875 0
-0.4375 -0.1875 0
-0.40625 -0.15625 0
-0.375 -0.15625 0
[...]
POINT_DATA 1089
SCALARS T float
LOOKUP_TABLE default
0
0
0
0
0
0
0
0
0
0
0
0
0
0
0
0
0
0
0
0
0
0
0
0
0
0
0
0
0
0
0
0
0
0
0
0
0
0
0
0
0
0
0
0
0
0
0
0
0
0
0
0
0
0
0
0
0
0
0
0
0
0
0
0
0
0
0
0
0
0
0
0
0
0
0
0
0
0
0
0
0
0
0
0
0
0
0
0
0
0
0
0
0
0
0
0
0
0
0
0
0
0
0
0
0
0
0
0
0
0
0
0
0
0
0
0
0
0
0
0
0
0
0
0
0
0
0
0
0
0
0
0
0
0
0
0
0
0
0
0
0
0
0
0
0
0
0
0
0
0
0
0
0
0
0
0
0
0
0
0
0
0
0
0
0
0
0
0
0
0
0
0
0
0
0
0
0
0
0
0
0
0
0
0
0
0
0
0
0
0
0
0
0
0
0
0
0
0
0
0
0
0
0
0
0
0
0
0.00026126
0.11356
0
0
0
0
0
0
0
0
0.00242251
0.0207518
0.349814
0.504844
0.0306532
0.0165513
0.530653
0.516551
0
0
0
0
0
0
0
0
0
0
0
0
0
0
0
0
0
0
0
0
0
0
0
0
0
0
0
0
0
0
0
0
0
0
0
0
0
0
0
0
0.0193717
0.0453343
0.519372
0.545334
0.044671
0.014481
0.542576
0.417307
0
0
0
0
0
0
0
0
0
0
0.1618
0.00687859
0
0
0
0
0
0
0
0
0
0
0
0
0
0
0
0
0
0
0
0
0
0
0
0
0
0
0
0
0
0
0
0
0
0
0
0
0
0
0
0
0
0
0
0
0
0
0
0
0
0
0
0
0
0
0
0.0306455
0
0
0.126337
0.174732
0
0
0
0
0
0
0
0
0
0
0.0884795
0.00943958
0
0
0
0
0
0
0
0
0
0
0
0
0
0
0
0
0
0
0
0
0
0
0
0
0
0
0
0
0
0
0
0
0
0
0
0
0
0
0
0
0
0
0
0
0
0
0
0
0
0
0
0
0
0
0
0
0
0
0
0
0
0
0
0
0
0
0
0
0
0
0
0
0
0
0
0
0.0725065
0.344042
0.249855
0.740745
0.617227
0.674732
0.99089
1
0.387683
0.887683
0.402914
0.902914
1
1
1
1
0.534143
0.217582
0.945663
0.537588
0.0124789
0
0.0919246
0
1
0.670264
1
0.655968
0.170264
0
0.155968
0
0.263481
0.752914
0.0709012
0.333437
0.989433
1
0.601795
0.668167
0
0.0231036
0
0
0.112363
0.168167
0
0
0.951008
0.525341
0.539555
0.219829
0.0743329
0
0.00918237
0
0.0885469
0.00963914
0
0
0
0
0
0
0
0
0
0
0
0
0
0
0
0
0
0
0
0
0
0
0
0
0
0
0
0
0
0
0
0
0
0
0
0
0
0
0
0
0
0
0
0
0
0
0
0
0
0
0
0
0
0
0
0
0
0
0
0
0
0
0
0
0
0
0
0
0
0
0
0
0
0
0
0.00170853
0.10125
0.464549
0.323261
0.821552
0
0
0.0358011
0
0
0.0873048
0.506365
0.970564
0.587305
1
0.847391
0.984093
1
1
1
1
1
1
1
1
1
1
1
1
1
1
0
0
0.0875908
0
0
0.0363623
0.587591
1
0.508935
0.972573
0
0
0.00198367
0
0
0
0.330913
0.828929
0.10723
0.482874
1
1
1
1
1
1
1
1
1
1
0.868224
0.992581
1
1
1
1
1
1
1
1
0.997905
0.902826
1
1
1
1
1
1
1
1
1
1
0.551928
0.147006
0.884091
0.405197
0
0
0.0211066
0
0.993963
0.602007
1
0.704972
0.108044
0
0.204972
0
1
1
1
1
1
1
1
1
1
1
1
1
1
1
1
0.942906
1
0.72735
1
0.666798
0.22735
0
0.166797
0
0.942724
0.502326
0.663982
0.223196
0.0596022
0
0.00212077
0
0
0
0
0
0
0
0.000874063
0.126518
0
0
0
0
0
0
0
0
0
0
0
0
0.379609
0.542745
0.0113844
0.0501649
0.570975
0.555677
0.0709746
0.0556768
0
0
0
0
0
0
0
0
0
0
0
0
0
0
0
0
0
0
0
0
0
0
0
0
0
0
0
0
0
0
0
0
0
0
0
0
0
0
0
0
0
0
0
0
0.558109
0.589078
0.0581085
0.0890778
0.593841
0.483603
0.0938407
0.0406965
0
0
0
0
0
0
0
0
0.222565
0.0283514
0.00130777
0
0
0
0
0
0
0
0
0
0
0
0
0
0
0
0
0
0
0
0
0
0
0
0
0
0
0
0
0
0
0
0
0
0
0
0
0
0
0
0
0
0
0
0
0
0
0
0
0
0
0
0
0
0
1.3291e-06
0
0.061081
0.093806
0.22829
0.404867
0.724089
0
0
0
0
0
0
0
0
0.135887
0.001402
0.428174
0.047871
0
0
0
0
0
0.234481
0
0.316343
0.734462
0.995799
0.816343
1
0
0.167881
0
0.0249392
0.578795
0.829655
0.185853
0.329655
0.790554
0.323556
0.955519
0.488059
0.0288212
0
0.0325394
0
0.65846
0.243437
0.201206
0.0324655
0.00371818
0
0
0
0
0
0
0
0
0
0
0
0
0
0
0
0
0
0
0
0
0
0
0
0
0
0
0
0
0
0
0
0
0
0
0
0
0
0
0
0
0
0
0
0
0
0
0
0
0
0
0
0
0
0
0
0
0
0
0
0
0
0
0
0
0
0
0
0
0
0
0
0
0
0
0
0
0
0
0
0
0
0
0
0
0
0
0
0
0
0
0
0
0
0
0
0
0
0
0
0
0
0
0
0
0
0
0
0
0
0
0
0
0
0
0
0
0
0
0
0
0
0
0
0
0
0
0
0
0
0
0
0
0
0
0
0
0
0
0
0
0
0
0
0
0
0
0
0
0
0
0
0
0
0
0
0
0
0
0
0
0
0
0
0
0
0
0
0
0
0
0
0
0
0
0
0
0
0
0
0
0
0
0
0
0
0
0
0
0
0
0
0
0
0
0

SCALARS P float
LOOKUP_TABLE default
-0.00959158
-0.00948655
-0.00982975
-0.00973115
-0.00934487
-0.00959457
-0.0093788
-0.00927509
-0.00914108
-0.00915697
-0.00939179
-0.00892033
-0.00910578
-0.00897384
-0.00877729
-0.00918011
-0.00908479
-0.00896242
-0.00899729
-0.00891409
-0.00880337
-0.00881309
-0.00864341
-0.00866587
-0.00850884
-0.0086434
-0.00873216
-0.00835711
-0.00829693
-0.00856469
-0.00836484
-0.00813053
-0.00789905
-0.00806948
-0.00772657
-0.00822668
-0.00821204
-0.00846803
-0.0083125
-0.00834731
-0.00820478
-0.00821355
-0.00821053
-0.00811233
-0.00809903
-0.00882947
-0.0087611
-0.00866031
-0.00868282
-0.00863182
-0.00853882
-0.00852697
-0.00836798
-0.00840156
-0.00822544
-0.00856206
-0.00853433
-0.00844937
-0.00847966
-0.00848359
-0.0084094
-0.00830118
-0.00809178
-0.00824484
-0.00798523
-0.0081987
-0.00804242
-0.00802616
-0.00782855
-0.00792976
-0.00788797
-0.00766845
-0.0075808
-0.00783638
-0.0075627
-0.00764294
-0.00724862
-0.0073189
-0.00715952
-0.00687119
-0.00660405
-0.00825944
-0.00794467
-0.00870093
-0.00855988
-0.00836727
-0.00868866
-0.00930192
-0.00941215
-0.0099413
-0.0102962
-0.00912104
-0.00958878
-0.0083302
-0.00856647
-0.00818366
-0.00835955
-0.00888486
-0.00923375
-0.0086034
-0.00887484
-0.0105206
-0.0110603
-0.0109859
-0.0116515
-0.0100274
-0.0103899
-0.0113145
-0.0120548
-0.0114935
-0.0122648
-0.0106521
-0.0107988
-0.00957015
-0.00985772
-0.00914614
-0.00939345
-0.0100753
-0.0102054
-0.00959775
-0.00974123
-0.00793624
-0.00806795
-0.00759324
-0.00769875
-0.00826349
-0.00848553
-0.00787344
-0.00807108
-0.00713036
-0.00722305
-0.00652879
-0.00663221
-0.00739434
-0.0075803
-0.00682885
-0.00702367
-0.00871739
-0.00895493
-0.00828246
-0.00853692
-0.00918779
-0.00943517
-0.00884854
-0.00934989
-0.00778534
-0.00808578
-0.00719084
-0.00744676
-0.00854026
-0.00951113
-0.0079659
-0.0098125
-0.00845233
-0.00850148
-0.00844722
-0.00849969
-0.00861503
-0.00860202
-0.00826672
-0.00794163
-0.00842096
-0.00802643
-0.00864818
-0.00885889
-0.00892708
-0.00891854
-0.00926699
-0.00948782
-0.00878643
-0.0083408
-0.00947868
-0.00906218
-0.00747448
-0.00689447
-0.00739509
-0.00653733
-0.00630197
-0.00586577
-0.00559621
-0.00488794
-0.00751182
-0.00624445
-0.00805502
-0.00621022
-0.00472319
-0.00355141
-0.00372142
-0.00176169
-0.00930972
-0.00985291
-0.0103436
-0.00976576
-0.0105726
-0.0114918
-0.0106586
-0.010513
-0.012462
-0.0131009
-0.0101862
-0.0113094
-0.012833
-0.0104229
-0.0118356
-0.0140523
-0.0149642
-0.0172597
-0.017997
-0.0128417
-0.00951609
-0.00688726
-0.0126382
-0.00892483
-0.00265931
0.000804743
-0.00144975
0.00488483
-0.0175779
-0.0104619
0.00675787
0.0215
0.0022135
0.0115869
0.0240117
0.0237796
-0.00573622
-0.00589531
-0.00469318
-0.00499844
-0.00618504
-0.00642255
-0.00549042
-0.00577633
-0.00328432
-0.00393084
-0.00141329
-0.00275896
-0.00484624
-0.00525012
-0.00461957
-0.00558196
-0.00648923
-0.00660901
-0.00560714
-0.00525024
-0.00723956
-0.0107444
-0.00529092
-0.00856539
-0.00473301
-0.00344721
-0.00528421
-0.00420069
-0.00172428
-0.00170797
-0.00305039
-0.00450005
0.00125245
-0.0015722
0.00547579
-0.000230861
-0.0054025
-0.00750639
-0.00775698
-0.0114835
0.0123812
0.00403086
0.0238484
0.0245076
-0.00819866
-0.0165378
0.0240546
0.0122601
-0.00771014
-0.00732355
-0.0114136
-0.0103759
-0.00764267
-0.0119267
-0.00986566
-0.0119176
-0.0168728
-0.0137416
-0.00856777
-0.0165216
-0.0115914
-0.0109886
-0.0128693
-0.0109013
-0.0115323
-0.012301
-0.0114422
-0.0121832
-0.0108282
-0.0107364
-0.01126
-0.0119431
-0.0110396
-0.0116299
-0.010569
-0.0104044
-0.0102298
-0.0101118
-0.00979229
-0.00964569
-0.00991411
-0.00977297
-0.00936249
-0.00921289
-0.010827
-0.0113021
-0.0106305
-0.0109941
-0.0102932
-0.0102083
-0.0104501
-0.0107335
-0.01029
-0.0105197
-0.0101106
-0.0100076
-0.0097716
-0.00981481
-0.00936408
-0.00956773
-0.00979562
-0.00973612
-0.0096025
-0.00954441
-0.00964853
-0.00951538
-0.00996559
-0.00995403
-0.00905384
-0.0088501
-0.00908875
-0.00866642
-0.0109964
-0.0111353
-0.0138933
-0.0128711
-0.00911571
-0.00813507
-0.000443243
0.00620588
-0.00923698
-0.00963981
-0.00942176
-0.0100485
-0.00964816
-0.00948569
-0.00988224
-0.00948837
-0.0098199
-0.0110878
-0.00485124
-0.0136409
-0.0105399
-0.00961833
-0.011889
-0.00954239
-0.0101514
-0.0103511
-0.0100361
-0.0102222
-0.0099025
-0.00980607
-0.00994088
-0.0101229
-0.00986249
-0.0100469
-0.00972137
-0.00964872
-0.00964981
-0.00956337
-0.00943978
-0.00933902
-0.00948543
-0.00942013
-0.00925373
-0.00919108
-0.00979527
-0.00998639
-0.00973352
-0.00993513
-0.00958452
-0.00952348
-0.00966869
-0.00988402
-0.00959158
-0.00981567
-0.0094576
-0.0093788
-0.00936383
-0.0093107
-0.00914339
-0.00910238
-0.0092521
-0.00918011
-0.00905677
-0.00899729
-0.00928724
-0.00912932
-0.00914284
-0.00890714
-0.0090165
-0.00895307
-0.00876239
-0.00870473
-0.00900184
-0.00863869
-0.00858456
-0.00816026
-0.00845512
-0.00841976
-0.00801684
-0.00806848
-0.00891771
-0.00889583
-0.00869004
-0.00869647
-0.00887053
-0.00882947
-0.00869949
-0.00868282
-0.00844472
-0.0084977
-0.00817602
-0.00830452
-0.00854364
-0.00856206
-0.00841272
-0.00847966
-0.0102232
0.0187891
0.0139091
0.0699767
0.0548581
0.0638241
0.105224
0.110189
0.0385055
0.0928124
0.03838
0.0951883
0.110354
0.113831
0.1112
0.114401
0.0455196
0.00640313
0.100698
0.0478549
-0.0134775
-0.00962303
-0.00277847
-0.00869795
0.109025
0.0694527
0.109814
0.0701334
0.0162364
-0.00194434
0.0182957
0.000873624
0.0148339
0.0747499
-0.0075692
0.0249849
0.108137
0.112901
0.0610997
0.0700466
-0.0112558
-0.00651411
-0.00951276
-0.00690744
0.00712771
0.0132042
-0.00261851
-0.00119498
0.107102
0.053266
0.0532988
0.0115127
0.000122039
-0.00500037
-0.0119071
-0.00783818
-0.00129541
-0.01241
-0.00541986
-0.00848
-0.009992
-0.00750956
-0.00796671
-0.00736225
-0.00798325
-0.00752082
-0.00683675
-0.006574
-0.00748379
-0.00767435
-0.00681302
-0.00722998
-0.00340726
-0.00483184
-0.00194036
-0.00407935
-0.00591787
-0.00674942
-0.00552946
-0.00655417
-0.0078994
-0.00812987
-0.00762427
-0.0079873
-0.00832029
-0.00845233
-0.00828223
-0.00849969
-0.00739031
-0.00791058
-0.00732949
-0.00795677
-0.0083256
-0.00864818
-0.00847694
-0.00891854
-0.0045641
-0.00520322
-0.00631286
-0.00622901
-0.00601664
-0.00681018
-0.00661238
-0.00718743
-0.00678725
-0.00677449
-0.00716597
-0.00722155
-0.00706143
-0.00752635
-0.0074518
-0.00782202
-0.00750884
-0.00814943
-0.0077847
-0.00840795
-0.00873988
-0.00930972
-0.00905388
-0.00976576
-0.0080533
-0.00865052
-0.0082698
-0.00881086
-0.0093346
-0.0101862
-0.00948896
-0.0104229
-0.0102097
-0.0115459
-0.0137906
-0.009532
-0.0102602
-0.0114642
-0.0110624
0.0137141
0.0068696
0.0406283
-0.00879486
-0.00879498
-0.00734328
-0.00840787
-0.0079248
-0.00332485
0.0202018
0.0492848
0.0250382
0.0500514
0.0451744
0.0529921
0.0547207
0.052087
0.0441521
0.0356699
0.047058
0.042671
0.0523093
0.0515547
0.0512567
0.051296
0.049381
0.0472927
0.0503272
0.0491371
-0.00860437
-0.00804698
-0.00332766
-0.00934742
-0.00915263
-0.00741056
0.0248642
0.049738
0.0199666
0.0486629
-0.0103638
-0.0108354
-0.0116921
-0.0112615
-0.0123127
-0.0142178
0.00711921
0.0401895
-0.0107467
0.0147599
0.0510663
0.0511549
0.0516787
0.0510719
0.0502014
0.0489662
0.048998
0.0468055
0.0535171
0.0512953
0.0458384
0.0526454
0.0465267
0.0420218
0.0433712
0.0346152
0.0349993
0.0428775
0.0421516
0.0458711
0.0531051
0.0491189
0.0506289
0.0529136
0.04684
0.0482136
0.0486732
0.0490522
0.0499389
0.0503386
0.0494999
0.0491726
0.0201452
-0.00690884
0.0427244
0.0117279
-0.0121996
-0.0106115
-0.00944149
-0.0102689
0.0479724
0.0233404
0.0474233
0.0280205
-0.00472922
-0.0111483
-0.00110847
-0.0135491
0.0484015
0.0486082
0.0460434
0.0468425
0.048982
0.0487554
0.0483374
0.0491003
0.0409066
0.0433663
0.0329527
0.0387394
0.0476397
0.0503736
0.0481206
0.0484258
0.0471448
0.0282471
0.0480356
0.023719
-0.00208542
-0.0159254
-0.00892918
-0.0191863
0.0448908
0.0116339
0.0240375
-0.0101267
-0.0187101
-0.0225699
-0.0238265
-0.0235308
-0.0116741
-0.0128137
-0.0148016
-0.0116265
-0.0125043
-0.0138906
-0.0185091
-0.0124646
-0.0160517
-0.0187299
-0.0113706
-0.0119412
-0.0127299
-0.0110303
-0.0113483
-0.0117243
-0.0137199
-0.0145808
-0.0120691
-0.0121249
0.00806755
0.0227267
-0.0185388
-0.010315
0.0243856
0.0230589
0.00213265
0.0106869
-0.0144732
-0.0110211
-0.0114322
-0.00904952
-0.00349671
0.00294752
-0.00489215
-0.00152805
-0.0106828
-0.0108171
-0.0109292
-0.0103615
-0.0103767
-0.0103433
-0.0109295
-0.0106518
-0.0101978
-0.00984878
-0.0100756
-0.0100208
-0.00991457
-0.00981567
-0.00973115
-0.00959457
-0.00971759
-0.00938532
-0.00939179
-0.00910578
-0.00986848
-0.00826268
-0.00919629
-0.00815064
-0.00600059
-0.00434727
-0.00687615
-0.00602966
-0.00888249
-0.00820813
-0.00873216
-0.00829693
-0.00750047
-0.00710618
-0.00789905
-0.00772657
0.0225331
0.0233871
0.011467
0.00466736
0.0240298
0.0139578
-0.00649174
-0.0183311
0.00335025
-0.00251501
-0.00150332
-0.00493885
-0.0112579
-0.0169865
-0.0100206
-0.0138204
-0.00962591
-0.0238354
-0.0234236
-0.0222614
-0.0233547
-0.0224415
-0.0209929
-0.0203112
-0.0186176
-0.0188898
-0.015589
-0.0164341
-0.0186714
-0.0183853
-0.0167175
-0.0166938
-0.00451314
-0.00654958
-0.00625151
-0.0075731
-0.00954435
-0.0121128
-0.00947262
-0.0112404
-0.00734136
-0.00822143
-0.00794467
-0.00855988
-0.00946565
-0.0107031
-0.00941215
-0.0102962
-0.0137036
-0.0146655
-0.0125204
-0.0133925
-0.0151502
-0.0152847
-0.0139057
-0.0141111
-0.0116995
-0.0124304
-0.0110603
-0.0116515
-0.0129007
-0.0131231
-0.0120548
-0.0122648
-0.00927221
-0.00711229
-0.00994939
-0.00879605
-0.0025779
0.00162247
-0.00274659
0.00560935
-0.0127224
-0.0152243
-0.0169899
-0.0120766
-0.00161325
0.0130899
0.0399186
0.0769656
-0.0010063
-0.00531113
0.00195984
-0.00540929
-0.00638301
-0.0069521
-0.00667842
-0.0075638
0.00185147
-0.00849387
0.030153
-0.0120018
-0.00845224
-0.00870931
-0.0137224
-0.011529
-0.0195969
0.0134239
-0.0224615
0.0264919
0.0947836
0.134145
0.108267
0.13261
-0.0253888
0.00157876
-0.0248099
-0.0217389
0.0763703
0.110054
0.0109447
0.040069
0.0991525
0.0288992
0.126663
0.0584331
-0.0135419
-0.0131655
-0.0115803
-0.0123479
0.0808442
0.0263161
0.026248
0.00310663
-0.011047
-0.0107313
-0.0070231
-0.00873194
-0.00724603
-0.0074738
-0.00790033
-0.00801622
-0.00773455
-0.00804789
-0.00815532
-0.00832396
-0.00865569
-0.00853948
-0.0103301
-0.00954421
-0.00854846
-0.00858632
-0.00920366
-0.00900958
-0.00840774
-0.00884042
-0.00852989
-0.00877837
-0.00940359
-0.0102097
-0.00909584
-0.009532
-0.00865173
-0.00871786
-0.00890322
-0.00880435
-0.0087699
-0.00879486
-0.00865953
-0.00840787
-0.0112243
-0.0101073
-0.01088
-0.0101156
-0.0096231
-0.00935383
-0.00979915
-0.0096287
-0.0103668
-0.0101207
-0.00944656
-0.00979178
-0.00998451
-0.00992047
-0.00993775
-0.0100579
-0.00919613
-0.00905758
-0.00953388
-0.00947217
-0.00888486
-0.00860437
-0.00942415
-0.00934742
-0.009907
-0.00996284
-0.0101768
-0.010371
-0.0101068
-0.0103638
-0.0107002
-0.0112615
-0.0222642
-0.022212
-0.0197159
-0.0187462
-0.0210363
-0.00932557
-0.0168288
-0.0114189
-0.0178759
-0.0169164
-0.016359
-0.0156504
-0.0152893
-0.0124128
-0.0145145
-0.0128429
0.000125213
-0.00318814
-0.00669919
-0.00656954
-0.00666188
-0.0084105
-0.00776686
-0.00875721
-0.00985424
-0.00902633
-0.0112821
-0.0104041
-0.00915306
-0.00947816
-0.0101106
-0.0100637
-0.015116
-0.0146461
-0.0140546
-0.0137588
-0.0138761
-0.0128292
-0.0132453
-0.0125632
-0.0131304
-0.012947
-0.012301
-0.0121832
-0.0126009
-0.0121438
-0.0119431
-0.0116299
-0.0118135
-0.0110798
-0.0118722
-0.0112959
-0.0106753
-0.0104593
-0.0109018
-0.0106371
-0.0116665
-0.0112343
-0.0113021
-0.0109941
-0.0108986
-0.0106443
-0.0107335
-0.0105197
-0.00929583
-0.00978724
-0.00939818
-0.00983509
-0.0100232
-0.0102079
-0.0100822
-0.0102834
-0.00977165
-0.0100258
-0.0101091
-0.0102005
-0.0101919
-0.0103438
-0.0102772
-0.0103647
-0.0103814
-0.0106317
-0.0104709
-0.0107171
-0.0110246
-0.0116741
-0.0110732
-0.0116265
-0.0104962
-0.0106947
-0.0104642
-0.0105984
-0.0109696
-0.0113706
-0.0107801
-0.0110303
-0.0103573
-0.0103285
-0.0104702
-0.0103743
-0.0103248
-0.0103478
-0.0103165
-0.0102898
-0.0104615
-0.0103357
-0.0103511
-0.0102222
-0.0102473
-0.0101879
-0.0101229
-0.0100469
-0.0103905
-0.01046
-0.0102846
-0.010299
-0.0105565
-0.0106828
-0.0103269
-0.0103615
-0.010148
-0.0101221
-0.00998639
-0.00993513
-0.0101013
-0.0100756
-0.00988402
-0.00982975

SCALARS U float
LOOKUP_TABLE default
0.0275599
0.0288271
0.0279075
0.0295279
0.0299174
0.0311593
0.0274106
0.0283277
0.0290413
0.0306744
0.0324897
0.0308787
0.0332006
0.0294222
0.0293143
0.0273658
0.0280401
0.0285052
0.0274366
0.0279681
0.0282938
0.0286498
0.0283548
0.0283092
0.0279111
0.030301
0.0329215
0.0287783
0.0313273
0.0285711
0.0271107
0.026233
0.0282059
0.0229143
0.0239265
0.0249206
0.0221824
0.0275182
0.0260968
0.0270165
0.0255978
0.0241041
0.0216805
0.0236778
0.0213773
0.0276201
0.0281056
0.028392
0.027897
0.0284419
0.028794
0.0283711
0.0279388
0.0288325
0.0284365
0.0282574
0.0289758
0.0295105
0.0286653
0.0296926
0.030553
0.0297194
0.0294465
0.031078
0.0310554
0.0270106
0.0255587
0.0275005
0.0259827
0.023605
0.0212682
0.0238945
0.0213706
0.0285406
0.0269248
0.0302542
0.0285244
0.0245828
0.0216893
0.0257849
0.0222816
0.019278
0.0192072
0.0158237
0.0148089
0.0191977
0.0163017
0.0130025
0.0114311
0.0110489
0.00939759
0.0137999
0.0118707
0.0190438
0.0164381
0.0188736
0.0163643
0.014081
0.0121097
0.0140173
0.0119412
0.00999104
0.00867052
0.00970828
0.00899114
0.0105654
0.00984168
0.01001
0.00998459
0.0106975
0.0112834
0.00962193
0.00982996
0.0105742
0.0094689
0.01016
0.00866643
0.00877931
0.00851919
0.00746883
0.00662468
0.01872
0.0161504
0.018616
0.0158556
0.0137074
0.0114765
0.0132474
0.0108603
0.0185324
0.0154251
0.01847
0.0148505
0.0125884
0.0100844
0.0117939
0.00936594
0.00943407
0.00753211
0.00857967
0.00621365
0.0057301
0.00397641
0.00347457
-0.000177802
0.00765305
0.00478551
0.00707699
0.0037297
0.000468482
-0.00743809
-0.00328387
-0.0183234
0.0291095
0.030591
0.0319499
0.0295458
0.031633
0.0337027
0.0329893
0.0334102
0.0355391
0.0367186
0.0299187
0.0327437
0.0357822
0.0301214
0.0337421
0.0380412
0.0388275
0.0412836
0.0428843
0.0474368
0.0328439
0.0309905
0.0366489
0.0347328
0.0276358
0.0231432
0.0304625
0.02437
0.0421649
0.0402838
0.049959
0.0482252
0.0346174
0.0259976
0.0405211
0.0280094
0.0298219
0.0341981
0.0400091
0.0284121
0.0332294
0.040339
0.0472665
0.0547479
0.0498368
0.0596966
0.0250749
0.0294444
0.0365632
0.019163
0.0214156
0.0259544
0.04633
0.055582
0.0319571
0.0359988
0.0591712
0.0566813
0.0637315
0.056072
0.0459198
0.0292192
0.040391
0.0249658
0.0550282
0.0387154
0.0341168
0.0266359
0.0200593
0.0146964
0.0197352
0.0170688
0.0182623
0.0138145
0.0177315
0.0119492
0.0104807
0.00847734
0.0083656
0.00767329
0.0165063
0.00838392
0.0138744
0.00168929
0.00398164
0.00449722
-0.00518686
-0.00533164
0.00725099
0.00545145
0.0100087
0.0156079
0.00052256
-0.0107288
0.0264389
0.0440364
0.0107591
0.0241228
0.00146203
0.0152931
0.0504571
0.092126
0.0393748
0.0745343
0.0103453
-0.00646564
0.0108654
-0.00514594
-0.0173044
-0.0197267
-0.0211029
-0.0287205
0.0171305
0.0115979
0.0161637
0.0137932
-0.00580039
-0.020888
0.00856235
0.00135552
-0.0143801
-0.00470538
-0.0258633
-0.0193084
0.00562414
0.0137333
-0.0180522
-0.0303791
-0.0237178
-0.0192908
-0.00393604
-0.00460978
-0.018132
-0.0290156
-0.0049839
-0.0105918
0.0116437
0.0126314
0.0127694
0.0138267
0.0104672
0.0116071
0.0140145
0.0147407
0.0152639
0.0153537
0.0132887
0.0152727
0.00882626
0.0100188
0.00640084
0.00759817
0.0123434
0.0153689
0.0109673
0.0157252
0.0163936
0.0157634
0.0173819
0.0161891
0.0171608
0.0186918
0.0182435
0.0167476
0.0190402
0.0174471
0.0198067
0.0206425
0.018234
0.0203473
0.0200392
0.022749
0.021633
0.0223914
0.0239749
0.0244135
0.00261332
0.00349221
-0.00445802
-0.00532286
0.00866171
0.0167479
0.00305458
0.0188561
-0.0190932
-0.0248889
-0.0391016
-0.0457695
-0.0101994
0.0218724
-0.0215397
0.0232521
0.0236139
0.0267827
0.0316216
0.0350114
0.0272413
0.0268132
0.0327474
0.029959
0.0479448
0.0524627
0.0626444
0.0740445
0.0435072
0.0347053
0.0602772
0.0425152
0.0198359
0.0182925
0.0206746
0.0192701
0.0213409
0.0220067
0.021593
0.0203731
0.0226089
0.0216028
0.0227203
0.0235171
0.0228926
0.0233151
0.0245364
0.0246003
0.0237831
0.0243481
0.0247627
0.0250822
0.0237306
0.0229634
0.0249493
0.0244561
0.0244095
0.0253824
0.0262433
0.0260761
0.0275599
0.027665
0.0264031
0.0274106
0.025022
0.0257824
0.0255562
0.0261486
0.0265864
0.0273658
0.0268012
0.0274366
0.0262705
0.025837
0.0280645
0.0268888
0.0256298
0.0256955
0.0262402
0.0260711
0.0298688
0.0275654
0.031981
0.0275892
0.0264552
0.0261296
0.0259344
0.0256197
0.0259955
0.0264716