# vtk DataFile Version 2.0
Gerris simulation version 1.3.2 (131206-155120)
ASCII
DATASET UNSTRUCTURED_GRID

POINTS 1089 float
-0.5 0.46875 0
-0.46875 0.46875 0
-0.5 0.5 0
-0.46875 0.5 0
-0.4375 0.46875 0
-0.4375 0.5 0
-0.5 0.4375 0
-0.46875 0.4375 0
-0.4375 0.4375 0
-0.40625 0.46875 0
-0.40625 0.5 0
-0.375 0.46875 0
-0.375 0.5 0
-0.40625 0.4375 0
-0.375 0.4375 0
-0.5 0.40625 0
-0.46875 0.40625 0
-0.4375 0.40625 0
-0.5 0.375 0
-0.46875 0.375 0
-0.4375 0.375 0
-0.40625 0.40625 0
-0.375 0.40625 0
-0.40625 0.375 0
-0.375 0.375 0
-0.34375 0.46875 0
-0.34375 0.5 0
-0.3125 0.46875 0
-0.3125 0.5 0
-0.34375 0.4375 0
-0.3125 0.4375 0
-0.28125 0.46875 0
-0.28125 0.5 0
-0.25 0.46875 0
-0.25 0.5 0
-0.28125 0.4375 0
-0.25 0.4375 0
-0.34375 0.40625 0
-0.3125 0.40625 0
-0.34375 0.375 0
-0.3125 0.375 0
-0.28125 0.40625 0
-0.25 0.40625 0
-0.28125 0.375 0
-0.25 0.375 0
-0.5 0.34375 0
-0.46875 0.34375 0
-0.4375 0.34375 0
-0.5 0.3125 0
-0.46875 0.3125 0
-0.4375 0.3125 0
-0.40625 0.34375 0
-0.375 0.34375 0
-0.40625 0.3125 0
-0.375 0.3125 0
-0.5 0.28125 0
-0.46875 0.28125 0
-0.4375 0.28125 0
-0.5 0.25 0
-0.46875 0.25 0
-0.4375 0.25 0
-0.40625 0.28125 0
-0.375 0.28125 0
-0.40625 0.25 0
-0.375 0.25 0
-0.34375 0.34375 0
-0.3125 0.34375 0
-0.34375 0.3125 0
-0.3125 0.3125 0
-0.28125 0.34375 0
-0.25 0.34375 0
-0.28125 0.3125 0
-0.25 0.3125 0
-0.34375 0.28125 0
-0.3125 0.28125 0
-0.34375 0.25 0
-0.3125 0.25 0
-0.28125 0.28125 0
-0.25 0.28125 0
-0.28125 0.25 0
-0.25 0.25 0
-0.21875 0.46875 0
-0.21875 0.5 0
-0.1875 0.46875 0
-0.1875 0.5 0
-0.21875 0.4375 0
-0.1875 0.4375 0
-0.15625 0.46875 0
-0.15625 0.5 0
-0.125 0.46875 0
-0.125 0.5 0
-0.15625 0.4375 0
-0.125 0.4375 0
-0.21875 0.40625 0
-0.1875 0.40625 0
-0.21875 0.375 0
-0.1875 0.375 0
-0.15625 0.40625 0
-0.125 0.40625 0
-0.15625 0.375 0
-0.125 0.375 0
-0.09375 0.46875 0
-0.09375 0.5 0
-0.0625 0.46875 0
-0.0625 0.5 0
-0.09375 0.4375 0
-0.0625 0.4375 0
-0.03125 0.46875 0
-0.03125 0.5 0
0 0.46875 0
0 0.5 0
-0.03125 0.4375 0
0 0.4375 0
-0.09375 0.40625 0
-0.0625 0.40625 0
-0.09375 0.375 0
-0.0625 0.375 0
-0.03125 0.40625 0
0 0.40625 0
-0.03125 0.375 0
0 0.375 0
-0.21875 0.34375 0
-0.1875 0.34375 0
-0.21875 0.3125 0
-0.1875 0.3125 0
-0.15625 0.34375 0
-0.125 0.34375 0
-0.15625 0.3125 0
-0.125 0.3125 0
-0.21875 0.28125 0
-0.1875 0.28125 0
-0.21875 0.25 0
-0.1875 0.25 0
-0.15625 0.28125 0
-0.125 0.28125 0
-0.15625 0.25 0
-0.125 0.25 0
-0.09375 0.34375 0
-0.0625 0.34375 0
-0.09375 0.3125 0
-0.0625 0.3125 0
-0.03125 0.34375 0
0 0.34375 0
-0.03125 0.3125 0
0 0.3125 0
-0.09375 0.28125 0
-0.0625 0.28125 0
-0.09375 0.25 0
-0.0625 0.25 0
-0.03125 0.28125 0
0 0.28125 0
-0.03125 0.25 0
0 0.25 0
-0.5 0.21875 0
-0.46875 0.21875 0
-0.4375 0.21875 0
-0.5 0.1875 0
-0.46875 0.1875 0
-0.4375 0.1875 0
-0.40625 0.21875 0
-0.375 0.21875 0
-0.40625 0.1875 0
-0.375 0.1875 0
-0.5 0.15625 0
-0.46875 0.15625 0
-0.4375 0.15625 0
-0.5 0.125 0
-0.46875 0.125 0
-0.4375 0.125 0
-0.40625 0.15625 0
-0.375 0.15625 0
-0.40625 0.125 0
-0.375 0.125 0
-0.34375 0.21875 0
-0.3125 0.21875 0
-0.34375 0.1875 0
-0.3125 0.1875 0
-0.28125 0.21875 0
-0.25 0.21875 0
-0.28125 0.1875 0
-0.25 0.1875 0
-0.34375 0.15625 0
-0.3125 0.15625 0
-0.34375 0.125 0
-0.3125 0.125 0
-0.28125 0.15625 0
-0.25 0.15625 0
-0.28125 0.125 0
-0.25 0.125 0
-0.5 0.09375 0
-0.46875 0.09375 0
-0.4375 0.09375 0
-0.5 0.0625 0
-0.46875 0.0625 0
-0.4375 0.0625 0
-0.40625 0.09375 0
-0.375 0.09375 0
-0.40625 0.0625 0
-0.375 0.0625 0
-0.5 0.03125 0
-0.46875 0.03125 0
-0.4375 0.03125 0
-0.5 0 0
-0.46875 0 0
-0.4375 0 0
-0.40625 0.03125 0
-0.375 0.03125 0
-0.40625 0 0
-0.375 0 0
-0.34375 0.09375 0
-0.3125 0.09375 0
-0.34375 0.0625 0
-0.3125 0.0625 0
-0.28125 0.09375 0
-0.25 0.09375 0
-0.28125 0.0625 0
-0.25 0.0625 0
-0.34375 0.03125 0
-0.3125 0.03125 0
-0.34375 0 0
-0.3125 0 0
-0.28125 0.03125 0
-0.25 0.03125 0
-0.28125 0 0
-0.25 0 0
-0.21875 0.21875 0
-0.1875 0.21875 0
-0.21875 0.1875 0
-0.1875 0.1875 0
-0.15625 0.21875 0
-0.125 0.21875 0
-0.15625 0.1875 0
-0.125 0.1875 0
-0.21875 0.15625 0
-0.1875 0.15625 0
-0.21875 0.125 0
-0.1875 0.125 0
-0.15625 0.15625 0
-0.125 0.15625 0
-0.15625 0.125 0
-0.125 0.125 0
-0.09375 0.21875 0
-0.0625 0.21875 0
-0.09375 0.1875 0
-0.0625 0.1875 0
-0.03125 0.21875 0
0 0.21875 0
-0.03125 0.1875 0
0 0.1875 0
-0.09375 0.15625 0
-0.0625 0.15625 0
-0.09375 0.125 0
-0.0625 0.125 0
-0.03125 0.15625 0
0 0.15625 0
-0.03125 0.125 0
0 0.125 0
-0.21875 0.09375 0
-0.1875 0.09375 0
-0.21875 0.0625 0
-0.1875 0.0625 0
-0.15625 0.09375 0
-0.125 0.09375 0
-0.15625 0.0625 0
-0.125 0.0625 0
-0.21875 0.03125 0
-0.1875 0.03125 0
-0.21875 0 0
-0.1875 0 0
-0.15625 0.03125 0
-0.125 0.03125 0
-0.15625 0 0
-0.125 0 0
-0.09375 0.09375 0
-0.0625 0.09375 0
-0.09375 0.0625 0
-0.0625 0.0625 0
-0.03125 0.09375 0
0 0.09375 0
-0.03125 0.0625 0
0 0.0625 0
-0.09375 0.03125 0
-0.0625 0.03125 0
-0.09375 0 0
-0.0625 0 0
-0.03125 0.03125 0
0 0.03125 0
-0.03125 0 0
0 0 0
0.03125 0.46875 0
0.03125 0.5 0
0.0625 0.46875 0
0.0625 0.5 0
0.03125 0.4375 0
0.0625 0.4375 0
0.09375 0.46875 0
0.09375 0.5 0
0.125 0.46875 0
0.125 0.5 0
0.09375 0.4375 0
0.125 0.4375 0
0.03125 0.40625 0
0.0625 0.40625 0
0.03125 0.375 0
0.0625 0.375 0
0.09375 0.40625 0
0.125 0.40625 0
0.09375 0.375 0
0.125 0.375 0
0.15625 0.46875 0
0.15625 0.5 0
0.1875 0.46875 0
0.1875 0.5 0
0.15625 0.4375 0
0.1875 0.4375 0
0.21875 0.46875 0
0.21875 0.5 0
0.25 0.46875 0
0.25 0.5 0
0.21875 0.4375 0
0.25 0.4375 0
0.15625 0.40625 0
0.1875 0.40625 0
0.15625 0.375 0
0.1875 0.375 0
0.21875 0.40625 0
0.25 0.40625 0
0.21875 0.375 0
0.25 0.375 0
0.03125 0.34375 0
0.0625 0.34375 0
0.03125 0.3125 0
0.0625 0.3125 0
0.09375 0.34375 0
0.125 0.34375 0
0.09375 0.3125 0
0.125 0.3125 0
0.03125 0.28125 0
0.0625 0.28125 0
0.03125 0.25 0
0.0625 0.25 0
0.09375 0.28125 0
0.125 0.28125 0
0.09375 0.25 0
0.125 0.25 0
0.15625 0.34375 0
0.1875 0.34375 0
0.15625 0.3125 0
0.1875 0.3125 0
0.21875 0.34375 0
0.25 0.34375 0
0.21875 0.3125 0
0.25 0.3125 0
0.15625 0.28125 0
0.1875 0.28125 0
0.15625 0.25 0
0.1875 0.25 0
0.21875 0.28125 0
0.25 0.28125 0
0.21875 0.25 0
0.25 0.25 0
0.28125 0.46875 0
0.28125 0.5 0
0.3125 0.46875 0
0.3125 0.5 0
0.28125 0.4375 0
0.3125 0.4375 0
0.34375 0.46875 0
0.34375 0.5 0
0.375 0.46875 0
0.375 0.5 0
0.34375 0.4375 0
0.375 0.4375 0
0.28125 0.40625 0
0.3125 0.40625 0
0.28125 0.375 0
0.3125 0.375 0
0.34375 0.40625 0
0.375 0.40625 0
0.34375 0.375 0
0.375 0.375 0
0.40625 0.46875 0
0.40625 0.5 0
0.4375 0.46875 0
0.4375 0.5 0
0.40625 0.4375 0
0.4375 0.4375 0
0.46875 0.46875 0
0.46875 0.5 0
0.5 0.46875 0
0.5 0.5 0
0.46875 0.4375 0
0.5 0.4375 0
0.40625 0.40625 0
0.4375 0.40625 0
0.40625 0.375 0
0.4375 0.375 0
0.46875 0.40625 0
0.5 0.40625 0
0.46875 0.375 0
0.5 0.375 0
0.28125 0.34375 0
0.3125 0.34375 0
0.28125 0.3125 0
0.3125 0.3125 0
0.34375 0.34375 0
0.375 0.34375 0
0.34375 0.3125 0
0.375 0.3125 0
0.28125 0.28125 0
0.3125 0.28125 0
0.28125 0.25 0
0.3125 0.25 0
0.34375 0.28125 0
0.375 0.28125 0
0.34375 0.25 0
0.375 0.25 0
0.40625 0.34375 0
0.4375 0.34375 0
0.40625 0.3125 0
0.4375 0.3125 0
0.46875 0.34375 0
0.5 0.34375 0
0.46875 0.3125 0
0.5 0.3125 0
0.40625 0.28125 0
0.4375 0.28125 0
0.40625 0.25 0
0.4375 0.25 0
0.46875 0.28125 0
0.5 0.28125 0
0.46875 0.25 0
0.5 0.25 0
0.03125 0.21875 0
0.0625 0.21875 0
0.03125 0.1875 0
0.0625 0.1875 0
0.09375 0.21875 0
0.125 0.21875 0
0.09375 0.1875 0
0.125 0.1875 0
0.03125 0.15625 0
0.0625 0.15625 0
0.03125 0.125 0
0.0625 0.125 0
0.09375 0.15625 0
0.125 0.15625 0
0.09375 0.125 0
0.125 0.125 0
0.15625 0.21875 0
0.1875 0.21875 0
0.15625 0.1875 0
0.1875 0.1875 0
0.21875 0.21875 0
0.25 0.21875 0
0.21875 0.1875 0
0.25 0.1875 0
0.15625 0.15625 0
0.1875 0.15625 0
0.15625 0.125 0
0.1875 0.125 0
0.21875 0.15625 0
0.25 0.15625 0
0.21875 0.125 0
0.25 0.125 0
0.03125 0.09375 0
0.0625 0.09375 0
0.03125 0.0625 0
0.0625 0.0625 0
0.09375 0.09375 0
0.125 0.09375 0
0.09375 0.0625 0
0.125 0.0625 0
0.03125 0.03125 0
0.0625 0.03125 0
0.03125 0 0
0.0625 0 0
0.09375 0.03125 0
0.125 0.03125 0
0.09375 0 0
0.125 0 0
0.15625 0.09375 0
0.1875 0.09375 0
0.15625 0.0625 0
0.1875 0.0625 0
0.21875 0.09375 0
0.25 0.09375 0
0.21875 0.0625 0
0.25 0.0625 0
0.15625 0.03125 0
0.1875 0.03125 0
0.15625 0 0
0.1875 0 0
0.21875 0.03125 0
0.25 0.03125 0
0.21875 0 0
0.25 0 0
0.28125 0.21875 0
0.3125 0.21875 0
0.28125 0.1875 0
0.3125 0.1875 0
0.34375 0.21875 0
0.375 0.21875 0
0.34375 0.1875 0
0.375 0.1875 0
0.28125 0.15625 0
0.3125 0.15625 0
0.28125 0.125 0
0.3125 0.125 0
0.34375 0.15625 0
0.375 0.15625 0
0.34375 0.125 0
0.375 0.125 0
0.40625 0.21875 0
0.4375 0.21875 0
0.40625 0.1875 0
0.4375 0.1875 0
0.46875 0.21875 0
0.5 0.21875 0
0.46875 0.1875 0
0.5 0.1875 0
0.40625 0.15625 0
0.4375 0.15625 0
0.40625 0.125 0
0.4375 0.125 0
0.46875 0.15625 0
0.5 0.15625 0
0.46875 0.125 0
0.5 0.125 0
0.28125 0.09375 0
0.3125 0.09375 0
0.28125 0.0625 0
0.3125 0.0625 0
0.34375 0.09375 0
0.375 0.09375 0
0.34375 0.0625 0
0.375 0.0625 0
0.28125 0.03125 0
0.3125 0.03125 0
0.28125 0 0
0.3125 0 0
0.34375 0.03125 0
0.375 0.03125 0
0.34375 0 0
0.375 0 0
0.40625 0.09375 0
0.4375 0.09375 0
0.40625 0.0625 0
0.4375 0.0625 0
0.46875 0.09375 0
0.5 0.09375 0
0.46875 0.0625 0
0.5 0.0625 0
0.40625 0.03125 0
0.4375 0.03125 0
0.40625 0 0
0.4375 0 0
0.46875 0.03125 0
0.5 0.03125 0
0.46875 0 0
0.5 0 0
-0.5 -0.03125 0
-0.46875 -0.03125 0
-0.4375 -0.03125 0
-0.5 -0.0625 0
-0.46875 -0.0625 0
-0.4375 -0.0625 0
-0.40625 -0.03125 0
-0.375 -0.03125 0
-0.40625 -0.0625 0
-0.375 -0.0625 0
-0.5 -0.09375 0
-0.46875 -0.09375 0
-0.4375 -0.09375 0
-0.5 -0.125 0
-0.46875 -0.125 0
-0.4375 -0.125 0
-0.40625 -0.09375 0
-0.375 -0.09375 0
-0.40625 -0.125 0
-0.375 -0.125 0
-0.34375 -0.03125 0
-0.3125 -0.03125 0
-0.34375 -0.0625 0
-0.3125 -0.0625 0
-0.28125 -0.03125 0
-0.25 -0.03125 0
-0.28125 -0.0625 0
-0.25 -0.0625 0
-0.34375 -0.09375 0
-0.3125 -0.09375 0
-0.34375 -0.125 0
-0.3125 -0.125 0
-0.28125 -0.09375 0
-0.25 -0.09375 0
-0.28125 -0.125 0
-0.25 -0.125 0
-0.5 -0.15625 0
-0.46875 -0.15625 0
-0.4375 -0.15625 0
-0.5 -0.1875 0
-0.46875 -0.1875 0
-0.4375 -0.1875 0
-0.40625 -0.15625 0
-0.375 -0.15625 0
[...]
POINT_DATA 1089
SCALARS T float
LOOKUP_TABLE default
0
0
0
0
0
0
0
0
0
0
0
0
0
0
0
0
0
0
0
0
0
0
0
0
0
0
0
0
0
0
0
0
0
0
0
0
0
0
0
0
0
0
0
0
0
0
0
0
0
0
0
0
0
0
0
0
0
0
0
0
0
0
0
0
0
0
0
0
0
0
0
0
0
0
0
0
0
0
0
0
0
0
0
0
0
0
0
0
0
0
0
0
0
0
0
0
0
0
0
0
0
0
0
0
0
0
0
0
0
0
0
0
0
0
0
0
0
0
0
0
0
0
0
0
0
0
0
0
0
0
0
0
0
0
0
0
0
0
0
0
0
0
0
0
0
0
0
0
0
0
0
0
0
0
0
0
0
0
0
0
0
0
0
0
0
0
0
0
0
0
0
0
0
0
0
0
0
0
0
0
0
0
0
0
0
0
0
0
0
0
0
0
0
0
0
0
0
0
0
0
0
0
0
0
0
0
0
0
0
0
0
0
0
0
0
0
3.15176e-06
0
0.00858823
0.0298649
0.244339
0.122815
0.326288
0.578701
0.826284
0
0
0
0
0
0
0
0
0
0
0
0
0
0
0
0
0
0
0
0
0
0
0
0
0
0
0
0
0
0
0
0
0
0
0.0204315
0.0659763
0
0
0.0849605
0.048021
0.482489
0.565976
0.962058
1
0.58496
0.541613
1
0.993592
0
0
0.00860848
0
0
0
0
0
0.43294
0.247949
0.924332
0.747049
0.0672157
6.89108e-06
0.451887
0.136024
0
0
0
0
0
0
0
0
0
0
0
0
0
0
0
0
0
0
0
0
0
0
0
0
0
0
0
0
0
0
0
0
0
0
0
0
0
0
0
0
0
0
0
0
0
0
0
0
0
0
0
0
0.00892313
0.164551
0.141951
0.547578
0
0
0.0117109
0.0339392
0
0
0.0234426
0.00121425
0.415116
0.531717
0.903405
0.997778
0.468376
0.227118
0.944934
0.66084
0
0
0
0
0
0
0
0
0
0
0
0
0
0
0
0
0
0
0
0
0
0
0
0
0
0
0
0
0
0
0
0
0
0
0
0
0
0
0
0
0
0
0
0
0
0
0
0
0.0309697
0
0.215917
1.05266e-05
0
0
0
0
0
0
0
0
0
0
0
0
0
0
0
0
0
0
0
0
0
0
0
0
0.336402
0.836402
0.375796
0.875796
0
0
0
0
0.214585
0.688105
0.042163
0.276089
1
1
1
1
1
0.925981
1
0.937905
0.97352
1
0.558405
0.650309
0.975193
0.725363
0.564664
0.292144
0
0
0
0
0
0.0104061
0
0
0
0
0.000446459
0
0
0
0
0
0.0848847
0.150309
0
0
0.0894714
0.013641
0
0
0
0
0
0
0
0
8.45285e-05
8.45285e-05
0.425993
1.14486e-05
0.437906
9.2199e-07
0
0
0
0
0.250171
0
0.0533105
0
0
0
0
0
0
0
0
0
0
0
0
0
0
0
0
0
0
0
0
0
0
0
0
0
0
0
0
0
0
0
0
0
0
0
0
0
0
0
0
0
0
0
0
0
0
0
0
0
0
0
0
0
0
0
0
0
0
0
0
0.000732586
0
0.0520675
0
0
0
0
0
0
0
0.142305
0
0.157308
0.220659
0.675813
0.492129
0.940062
0.955886
1
1
1
0.642305
1
0.657308
1
1
1
1
1
0
0
0
0
0
0
0
0.071885
0
0.00554705
0
0
0
0
0
0
0
0
0
0
0.538673
0.966788
0.276663
0.757752
1
1
0.986637
1
0.0543276
0.324928
0
0.0339641
0.69174
0.918954
0.205103
0.442154
1
1
1
1
1
1
1
1
1
1
1
1
1
1
1
1
1
0.999101
1
1
0.884672
0.47394
1
0.787522
1
1
1
1
1
0.943094
1
0.971374
1
1
1
1
1
1
1
1
0.997814
1
0.603356
0.694076
1
1
0.723422
0.693187
1
1
1
1
1
0.875451
0.962311
0.630024
0.995527
0.903804
0.598772
0.425549
0.64216
0.254025
0.179849
0.0215725
0
0
0
0
0
0
0
0
0
0
0
0
0
0
0
0
0
0
0
0
0
0
0
0
0
0.0232005
0
0
0
0
0
0
0
0
0
0
0
0
0
0
0
0
0
0
0
0
0
0
0
0
0
0
0
0
0
0
0
0
0
0
0
0
0
0
0
0
0
0
0
0
0
0
0.105541
0.194076
0
0
0.223422
0.193187
0
0
0
0
0
0
0
0
0
0
0.103245
0.0217448
0
0
0
0
0
0
0
0
0
0
0
0
0
0
0
0
0
0
0
0
0
0
0
0
0
0
0
0
0
0
0
0
0
0
0
0
0
0
0
0
0
0
0
0
0
0
0.0883689
0
0.287522
0
0
0
0
0
0.443125
3.06489e-05
0.47143
5.58948e-05
0
0
0
0
0
0.0371194
0
0.0637307
0.0553973
0.0182779
0.17006
0.130972
0.0871366
0.358893
0.217243
0.712388
0.609893
0.549467
0.995145
0.936688
0.375476
2.52459e-05
0.167713
0
0
0
0
0
0.0201418
0
0
0
0
0
0
0
0.207839
0.707839
0.0791865
0.45037
1
0.970901
0.785641
0.689291
0.00145333
0.122637
0
0
0.285641
0.218391
0
0
0
0
0.0246428
0
0
0
0
0
0.213452
0.002122
0.46636
0.0296722
0
0
0
0
0
0
0
0
0
0
0
0
0
0
0
0
0
0
0
0
0.506955
0.0360546
0.283339
0.00850436
0
0
0
0
0.0539339
0
0
0
0
0
0
0
0
0
0
0
0
0
0
0
0
0
0
0
0
0
0
0
0
0
0
0
0
0
0
0
0
0
0
0
0
0
0
0
0
0
0
0
0
0
0
0
0
0
0
0
0
0
0
0
0
0
0
0
0
0
0
0
0
0
0
0
0
0
0
0
0
0
0
0
0
0
0
0
0
0
0
0
0
0
0
0
0
0
0
0
0
0
0
0
0
0
0
0
0
0
0
0
0
0
0
0
0
0
0
0
0
0
0
0
0
0
0
0
0
0
0
0
0
0
0
0
0
0
0
0
0
0
0
0
0
0
0
0
0
0
0
0
0
0
0
0
0
0
0
0

SCALARS P float
LOOKUP_TABLE default
-0.00803997
-0.0078481
-0.00801647
-0.00782278
-0.00763316
-0.00760117
-0.00808778
-0.00789462
-0.00768203
-0.00739855
-0.00735338
-0.00715032
-0.00708397
-0.00745467
-0.00721924
-0.00815799
-0.00795853
-0.00774287
-0.00824926
-0.00803741
-0.00781258
-0.00751619
-0.00728529
-0.00757969
-0.00734515
-0.00689682
-0.00680109
-0.0066491
-0.00651675
-0.00698395
-0.00675894
-0.00642177
-0.00624894
-0.00623173
-0.00602043
-0.00655651
-0.00639001
-0.00705804
-0.00684392
-0.00711636
-0.00690247
-0.00665386
-0.00649926
-0.00671383
-0.0065614
-0.0083587
-0.00812829
-0.00788834
-0.00848229
-0.00822825
-0.00796822
-0.00764258
-0.00739653
-0.00770367
-0.00743864
-0.00861296
-0.00833345
-0.00805075
-0.00874397
-0.0084414
-0.00813654
-0.00776304
-0.00747229
-0.00782323
-0.00750075
-0.00715695
-0.00693299
-0.00717899
-0.00693434
-0.00673533
-0.00657575
-0.00671647
-0.00653953
-0.00718306
-0.00690594
-0.00717168
-0.00684815
-0.00665465
-0.00644755
-0.00654667
-0.00629245
-0.00609553
-0.00585461
-0.00602595
-0.00576956
-0.00627196
-0.00621166
-0.00602934
-0.0057751
-0.00610435
-0.00587103
-0.00621327
-0.00627457
-0.00639063
-0.00633546
-0.00645522
-0.00640234
-0.00633677
-0.00639167
-0.00640555
-0.00646152
-0.00624149
-0.00604566
-0.00642437
-0.00627827
-0.00638706
-0.00653615
-0.00663371
-0.00654419
-0.00685037
-0.00682102
-0.00670502
-0.00687483
-0.0064917
-0.00662223
-0.00656139
-0.00668898
-0.00676644
-0.00690284
-0.00682556
-0.00694388
-0.00646545
-0.00641247
-0.00641773
-0.00636175
-0.00642035
-0.00648596
-0.00637717
-0.00646193
-0.0063043
-0.00624041
-0.00611404
-0.00603463
-0.00626498
-0.00637845
-0.00606832
-0.00622019
-0.00659985
-0.00674366
-0.00660664
-0.00679085
-0.00689548
-0.00701925
-0.00698886
-0.00715606
-0.00657243
-0.00682467
-0.00648424
-0.00683866
-0.0071077
-0.00737355
-0.00726126
-0.00771191
-0.00886292
-0.00854893
-0.00822811
-0.00897099
-0.00866126
-0.00833394
-0.0078902
-0.00753169
-0.00797474
-0.00757666
-0.00907921
-0.00879046
-0.00847
-0.00920779
-0.00895453
-0.00865584
-0.00809794
-0.0076616
-0.00828234
-0.00781129
-0.00715194
-0.00676501
-0.00713342
-0.00666123
-0.00639067
-0.00606402
-0.0061836
-0.00575063
-0.00714408
-0.00656091
-0.00720599
-0.00647227
-0.00593399
-0.00533452
-0.00563256
-0.00479833
-0.00936882
-0.00917099
-0.00892036
-0.00956822
-0.00945136
-0.00928362
-0.00857487
-0.00809753
-0.00900786
-0.00856371
-0.00980048
-0.00980109
-0.0097715
-0.0100442
-0.0102069
-0.0103843
-0.00964327
-0.00933226
-0.0105185
-0.0105389
-0.00741345
-0.00649744
-0.00780552
-0.00662509
-0.00533823
-0.00410238
-0.00494613
-0.00315629
-0.00859399
-0.00667347
-0.00809832
0.00628654
0.00129908
0.0128924
0.0261633
0.0381898
-0.00582833
-0.00571917
-0.00542933
-0.00527209
-0.00575694
-0.00595353
-0.00530357
-0.00554562
-0.00487487
-0.00463541
-0.00415203
-0.00380149
-0.00464312
-0.00493581
-0.00376197
-0.00410255
-0.00630489
-0.00678833
-0.00599414
-0.00662053
-0.00738694
-0.00807192
-0.00739817
-0.00829754
-0.00550382
-0.00629761
-0.00481292
-0.00581066
-0.00724057
-0.00826613
-0.00694228
-0.00804762
-0.00313349
-0.00259389
-0.000995023
0.00159739
-0.00247631
-0.00290343
0.00254008
0.000569365
0.0205433
0.0242524
0.0435732
0.044654
0.0250009
0.0230459
0.0444231
0.0443867
-0.00386884
-0.00524855
-0.0022352
-0.00448466
-0.00672541
-0.00797528
-0.00651621
-0.00807951
0.0179087
0.00797604
0.0420119
0.0343202
-0.00323998
-0.00869329
0.0180305
-0.00177898
-0.00705994
-0.00709098
-0.00725053
-0.00734229
-0.00703238
-0.00716393
-0.00742358
-0.00757307
-0.00758064
-0.00778173
-0.00727569
-0.00737112
-0.0070175
-0.00708981
-0.00702509
-0.00703268
-0.00712883
-0.00713371
-0.00697522
-0.00683947
-0.00773885
-0.00797513
-0.00791647
-0.00815723
-0.00748661
-0.00766726
-0.00810774
-0.00831857
-0.00829125
-0.0084465
-0.00790971
-0.00817382
-0.00717907
-0.00736254
-0.0067638
-0.00694988
-0.00769033
-0.00808859
-0.00742598
-0.00804612
-0.00708683
-0.00703517
-0.0072486
-0.00716571
-0.00685732
-0.00645876
-0.00682684
-0.00596531
-0.00756096
-0.00756111
-0.00814789
-0.00852764
-0.00604888
0.0125558
0.00926218
0.0571966
-0.00609349
-0.00624676
-0.00413782
-0.00237712
-0.00703799
-0.00810947
-0.00457256
-0.00823635
0.0409442
0.053496
0.0970587
0.107729
0.0459973
0.0167734
0.102653
0.0690829
-0.00842962
-0.0085271
-0.00851086
-0.00856135
-0.0083832
-0.00851335
-0.00853796
-0.00855392
-0.00851392
-0.00850826
-0.00857177
-0.00856321
-0.00839893
-0.00858246
-0.00850234
-0.00874163
-0.00866722
-0.0086643
-0.00884252
-0.00882878
-0.00844674
-0.0084296
-0.00834253
-0.00832067
-0.00850151
-0.0083968
-0.00820576
-0.00818298
-0.00803997
-0.00801729
-0.00825679
-0.00808778
-0.00859868
-0.00848539
-0.00874464
-0.00861102
-0.00833561
-0.00815799
-0.00844253
-0.00824926
-0.00879191
-0.00905347
-0.00931396
-0.00954565
-0.00913064
-0.00907091
-0.00954424
-0.0093925
-0.00709762
-0.0104389
0.0145873
-0.0117288
-0.0101313
-0.00979032
-0.0108743
-0.0102328
-0.00894385
-0.00877345
-0.00919293
-0.00896759
-0.00857532
-0.0083587
-0.00872907
-0.00848229
-0.00947664
-0.00917858
-0.00976944
-0.00938746
-0.00889279
-0.00861296
-0.00905423
-0.00874397
-0.00887475
-0.00983209
-0.00940566
-0.010801
0.032436
0.0930802
0.0370426
0.0989029
-0.00939949
-0.010747
-0.00904309
-0.00998797
0.0163245
0.0748759
-0.00511538
0.0239168
0.110314
0.109818
0.111113
0.109864
0.110832
0.103225
0.110112
0.103812
0.107279
0.108517
0.057366
0.066948
0.105378
0.0764881
0.0568429
0.0251133
-0.0089266
-0.0096271
-0.00908776
-0.00972286
-0.00988842
-0.00818386
-0.00996824
-0.00988788
-0.00964763
-0.0101509
-0.0107279
-0.0109454
-0.0102858
-0.0103387
-0.0108649
-0.0109746
0.00123395
0.00906489
-0.00945489
-0.00913465
0.00186923
-0.00731554
-0.00959235
-0.0100345
-0.0103611
-0.0104637
-0.0112763
-0.0116994
-0.0112277
-0.0113956
-0.0131476
-0.0130542
0.0409616
-0.012225
0.0424307
-0.0117315
-0.0111845
-0.010449
-0.0109456
-0.0103912
0.0195956
-0.0108577
-0.00345335
-0.0101538
-0.0104844
-0.0102021
-0.0101262
-0.0100361
-0.00994133
-0.00953244
-0.00996414
-0.00960134
-0.0091843
-0.00886292
-0.00927862
-0.00897099
-0.00990303
-0.00962386
-0.00984791
-0.00964815
-0.00935224
-0.00907921
-0.0094341
-0.00920779
-0.0096411
-0.0100462
-0.0101743
-0.0102126
-0.0100631
-0.00998797
-0.010117
-0.00999334
-0.0108432
-0.0105237
-0.0114286
-0.0106779
-0.0102451
-0.0100277
-0.010219
-0.00993869
-0.00984504
-0.00969664
-0.00986733
-0.00976204
-0.00953742
-0.00936882
-0.00966311
-0.00956822
-0.00989717
-0.00982937
-0.00984275
-0.00984472
-0.00979987
-0.00980048
-0.00991551
-0.0100442
-0.0102791
-0.0106377
-0.0110905
-0.0104224
-0.0109913
-0.0117392
-0.0116373
-0.0122105
-0.0127526
-0.0100086
-0.0104553
-0.0111819
-0.0121527
-0.0103311
-0.0111237
-0.0121688
-0.0135232
-0.00402383
-0.013639
-0.00289839
0.00318187
0.0332058
0.0214405
0.0520166
0.0487938
0.0490657
0.0531331
0.0507949
0.0326542
0.0572255
0.0340054
0.0574967
0.0540842
0.051755
0.0543003
0.0519193
-0.0100706
-0.0108076
-0.0117273
-0.00974936
-0.010323
-0.0109805
-0.012956
-0.00870716
-0.0117622
-0.0122155
-0.00940045
-0.00977439
-0.0101485
-0.00907906
-0.00926266
-0.00939373
-0.0104913
-0.010748
-0.00941346
-0.00922765
0.0252622
0.0547169
0.00726029
0.0396363
0.0536736
0.0512117
0.0515527
0.0496648
-0.0066137
0.0118561
-0.00857077
-0.00490201
0.0334053
0.0434399
0.00658043
0.0196278
0.0475885
0.0468368
0.0492466
0.0484529
0.0466183
0.047012
0.048256
0.0486806
0.0501882
0.0493548
0.0503468
0.0495196
0.0491732
0.049653
0.049378
0.0499354
0.0480884
0.0498067
0.0497762
0.0515316
0.0448601
0.0189868
0.0540225
0.0405739
0.0507851
0.052527
0.0511699
0.0530583
0.0548811
0.0524412
0.055578
0.0554397
0.0496837
0.0489034
0.0482095
0.0474625
0.048819
0.0494687
0.0474309
0.048208
0.0458405
0.0453204
0.0269689
0.0307161
0.0453662
0.0462456
0.0319707
0.030985
0.0508272
0.0529134
0.0497433
0.0520075
0.055789
0.0488818
0.0523749
0.0310402
0.0476296
0.0446937
0.0270779
0.0182457
0.0309219
0.00614504
0.00338775
-0.00733798
-0.00879187
-0.00882798
-0.00878839
-0.00855622
-0.00848743
-0.00834193
-0.00861623
-0.00822419
-0.00807576
-0.00762752
-0.0083664
-0.00822998
-0.00802276
-0.00822236
-0.00804797
-0.0078136
-0.00771274
-0.00725956
-0.00749848
-0.00707989
-0.00744326
-0.00615744
-0.00691895
-0.00590532
-0.00400519
-0.000666394
-0.00443322
-0.00289748
-0.00662819
-0.00580725
-0.00654595
-0.00589844
-0.00478786
-0.00377797
-0.00515825
-0.00444551
-0.00811978
-0.00792687
-0.00768428
-0.00805359
-0.00785513
-0.00761615
-0.00737959
-0.00700206
-0.00733052
-0.00699523
-0.00802088
-0.00782339
-0.00759269
-0.00801729
-0.00782278
-0.00760117
-0.00732708
-0.00702829
-0.00735338
-0.00708397
-0.0065512
-0.00603648
-0.00661516
-0.00620235
-0.00548795
-0.00497889
-0.00578373
-0.00540692
-0.00670361
-0.00636558
-0.00680109
-0.00651675
-0.00603659
-0.00574878
-0.00624894
-0.00602043
0.00423331
0.0085591
-0.00178894
-0.00107015
0.00982538
0.00799621
-0.000977002
-0.00164614
-0.00301933
-0.00254902
-0.00390626
-0.00359677
-0.00250904
-0.00296651
-0.00358727
-0.00390449
0.00277611
-0.00284356
-0.00291634
-0.0044234
-0.00595229
-0.00754049
-0.0058804
-0.00709233
-0.00382019
-0.00485799
-0.00449196
-0.00523566
-0.0058963
-0.00683244
-0.00601515
-0.00675011
-0.00459446
-0.00438266
-0.00512551
-0.0049759
-0.00438558
-0.00461552
-0.0049827
-0.00515086
-0.00553671
-0.00542646
-0.00585461
-0.00576956
-0.00543368
-0.00556
-0.0057751
-0.00587103
-0.00503619
-0.00557689
-0.00545733
-0.00585862
-0.00616027
-0.00673387
-0.00630386
-0.00675427
-0.00578931
-0.00609228
-0.00604566
-0.00627827
-0.00643447
-0.00678755
-0.00654419
-0.00682102
-0.00646282
-0.0118226
0.00626001
-0.0126962
-0.011193
-0.0110907
-0.0115345
-0.0111003
0.0176069
-0.0127805
0.0202897
-0.0122033
-0.0113272
-0.0109742
-0.00978726
-0.00765085
-0.01146
-0.00393655
-0.0114469
0.00112908
-0.00327249
-0.0117263
0.0205058
0.0117025
0.00426632
0.0547206
0.0298876
0.118096
0.105101
0.0919338
0.174683
0.161068
0.0136158
-0.0117269
-0.000701097
-0.0110237
-0.00894324
-0.00537465
-0.00940162
-0.00742272
-0.00962521
-0.010253
-0.0094048
-0.00953186
-0.00982615
-0.00945358
-0.00975142
-0.0100523
0.0324222
0.118661
0.00862326
0.0763271
0.172738
0.163466
0.137802
0.113688
-0.00967286
0.0123918
-0.0111065
-0.0140359
0.0419945
0.028604
-0.016667
-0.0135047
-0.0122685
-0.0108417
-0.0071305
-0.0100946
-0.0101604
-0.00981073
-0.00950961
-0.00929604
0.028344
-0.00708592
0.0724292
-0.00193094
-0.00792372
-0.00843057
-0.0069015
-0.00779445
-0.00975457
-0.0098281
-0.00941405
-0.00964531
-0.010007
-0.0102791
-0.00998172
-0.0104224
-0.00892603
-0.00938348
-0.00846599
-0.00908365
-0.0098778
-0.0104553
-0.00967821
-0.0103311
0.077714
-0.000280229
0.0392815
-0.00396274
-0.00609021
-0.00730791
-0.00615502
-0.00735048
0.000447571
-0.00728397
-0.00936675
-0.00869032
-0.00744121
-0.00789159
-0.00826276
-0.00831648
-0.00809362
-0.00880242
-0.00806896
-0.00868437
-0.00942843
-0.0100706
-0.00922133
-0.00974936
-0.00826769
-0.00865643
-0.00846415
-0.0086621
-0.00903205
-0.00940045
-0.00887493
-0.00907906
-0.00845865
-0.00893959
-0.00793663
-0.0085237
-0.00941957
-0.0099095
-0.00907578
-0.00959568
-0.00758241
-0.00817277
-0.00738378
-0.00791858
-0.0087115
-0.00919774
-0.00840136
-0.00882762
-0.0107735
-0.0123151
-0.0102566
-0.011087
-0.013515
-0.0119542
-0.0115877
-0.0108623
-0.00971181
-0.010224
-0.00922922
-0.00957487
-0.010482
-0.0101473
-0.00974059
-0.00960576
-0.00725664
-0.00771907
-0.00717928
-0.00756643
-0.00813698
-0.00850426
-0.00791803
-0.00822815
-0.00712854
-0.00744495
-0.00709098
-0.00734229
-0.00773452
-0.00799288
-0.00757307
-0.00778173
-0.00883139
-0.00909542
-0.00849942
-0.0087184
-0.00923374
-0.00920427
-0.00885372
-0.00888921
-0.00822215
-0.00841694
-0.00797513
-0.00815723
-0.00856069
-0.0086435
-0.00831857
-0.0084465
-0.0097627
-0.00915151
-0.00976282
-0.00926917
-0.00870722
-0.00858173
-0.00889843
-0.00871743
-0.0095695
-0.00920943
-0.00931432
-0.00907877
-0.00892359
-0.00874079
-0.00887211
-0.00871106
-0.00857877
-0.00863731
-0.0086345
-0.00859999
-0.00872035
-0.00879187
-0.00858528
-0.00855622
-0.00862414
-0.00853834
-0.00858478
-0.00847199
-0.00846177
-0.0083664
-0.00835802
-0.00822236
-0.00906823
-0.00892552
-0.00884873
-0.00877778
-0.00878337
-0.00865235
-0.00868852
-0.00858836
-0.00866879
-0.00865421
-0.0085271
-0.00856135
-0.00860867
-0.00853722
-0.00855392
-0.00850826
-0.00853161
-0.00840949
-0.00848012
-0.00835871
-0.00827677
-0.00811978
-0.00821919
-0.00805359
-0.00844391
-0.00832807
-0.0084296
-0.00832067
-0.00818818
-0.00802088
-0.00818298
-0.00801647

SCALARS U float
LOOKUP_TABLE default
0.0222536
0.0227445
0.0222104
0.0227487
0.0231907
0.0232641
0.0223487
0.0227786
0.0231627
0.0235725
0.0237232
0.023861
0.0240955
0.0234804
0.0237045
0.0224888
0.0228618
0.023196
0.0226633
0.0229895
0.0232909
0.0234683
0.0236509
0.0235407
0.0237075
0.024017
0.0243341
0.0239953
0.0243797
0.0238007
0.0237324
0.0237532
0.0241691
0.0232668
0.0236602
0.0234681
0.0229926
0.0237105
0.0236137
0.0237554
0.0236485
0.0233328
0.0228555
0.023357
0.0228664
0.0228441
0.0231438
0.0234361
0.0229884
0.0232954
0.0236096
0.0236904
0.0238702
0.0238991
0.0241234
0.0230577
0.0234126
0.0237805
0.0230357
0.0234671
0.023908
0.0241349
0.0244337
0.0243453
0.0247412
0.0239337
0.0238375
0.0242325
0.0241712
0.0235438
0.0230315
0.0238882
0.0233509
0.0246197
0.0246226
0.0250357
0.0251416
0.0243707
0.023814
0.0249567
0.0244025
0.0225486
0.0228642
0.0216494
0.0218455
0.0223181
0.0214857
0.0206497
0.020711
0.019647
0.0195923
0.0205596
0.0196173
0.0221921
0.0213784
0.0221844
0.0213443
0.0204695
0.0195327
0.0203994
0.0194158
0.0187297
0.0186045
0.0179611
0.0178192
0.0187311
0.017959
0.0173715
0.0172587
0.0169608
0.0168968
0.017335
0.0168767
0.0186319
0.0178234
0.0184569
0.0175816
0.0171426
0.0166209
0.0168243
0.0162234
0.0223046
0.0213972
0.0225576
0.0215474
0.0203688
0.0192948
0.0203946
0.0191974
0.0229414
0.0217995
0.0234494
0.0221528
0.0204884
0.0191433
0.0206489
0.0191259
0.0182489
0.0173001
0.0180547
0.0170573
0.0164802
0.0158287
0.0162396
0.0156248
0.0179089
0.01692
0.017799
0.0168775
0.0162303
0.0158447
0.0164552
0.0165716
0.0229495
0.0234403
0.0239403
0.0228288
0.0233035
0.023809
0.0244551
0.0249598
0.0243737
0.0250006
0.0226662
0.023016
0.0234536
0.022351
0.0225033
0.0228252
0.0240423
0.0248374
0.023446
0.0244925
0.0254022
0.025672
0.0256613
0.0262003
0.0256147
0.0251037
0.0263621
0.0259449
0.0258409
0.0267739
0.025949
0.0272356
0.0271856
0.0268243
0.027652
0.0271258
0.0218064
0.021753
0.0219608
0.0210042
0.0207741
0.0208669
0.02265
0.023971
0.0215508
0.0228366
0.0200345
0.0196643
0.0196001
0.0189659
0.0184511
0.0180776
0.0200687
0.0208136
0.0179432
0.0175956
0.0256965
0.0266227
0.0239959
0.0232488
0.0259254
0.0245444
0.020317
0.0181281
0.0207283
0.0192222
0.016491
0.0167119
0.0174118
0.0171748
0.0192676
0.0211355
0.0240777
0.0226009
0.0248467
0.0231461
0.0208547
0.0190862
0.0210791
0.0189478
0.0256211
0.023702
0.0258239
0.0239547
0.0213298
0.0187777
0.0216967
0.0190226
0.0175998
0.0166922
0.017156
0.016098
0.0164918
0.0170759
0.0159168
0.0166214
0.0165082
0.0150338
0.0162615
0.0141124
0.0145557
0.0149284
0.0130056
0.0128869
0.0234889
0.0229309
0.0184137
0.0202841
0.0224728
0.0211349
0.0225842
0.0238685
0.0182879
0.0191177
0.0208415
0.0192157
0.0195175
0.0199581
0.01725
0.0161432
0.0185823
0.0155283
0.0231947
0.0203142
0.0130164
0.0120462
0.0162671
0.0136816
0.0204767
0.0203777
0.016381
0.0180203
0.0191353
0.0172786
0.0205229
0.0214992
0.0167043
0.016682
0.016577
0.0165651
0.016578
0.0164394
0.0165466
0.0165051
0.0166012
0.016491
0.0164368
0.0165697
0.0162622
0.0160959
0.0157795
0.0155543
0.0160996
0.016301
0.0154832
0.0156334
0.0167545
0.0165352
0.0170165
0.0166724
0.0168797
0.0173526
0.0173831
0.0169395
0.0178054
0.0173314
0.0179166
0.0184279
0.0168292
0.0176714
0.0164187
0.0179313
0.0186372
0.019344
0.0196796
0.0207149
0.015314
0.01498
0.0150908
0.0144978
0.0144929
0.0140447
0.0129858
0.0114611
0.0155746
0.015055
0.0170833
0.0178125
0.0134227
0.0124294
0.0187788
0.0200857
0.0150558
0.0180327
0.01325
0.0186781
0.0215423
0.0231207
0.0246574
0.0269693
0.0148667
0.0187773
0.0205963
0.0181929
0.0225963
0.0252126
0.0148488
0.0143962
0.0182757
0.0178357
0.0188125
0.0184296
0.0188714
0.0193404
0.0193988
0.0190753
0.0200021
0.0197352
0.0198495
0.0203722
0.0197371
0.0200886
0.0209298
0.0210395
0.020476
0.0208727
0.0212437
0.0214669
0.0205989
0.0203855
0.0211774
0.0210148
0.0208919
0.0213998
0.0217292
0.0216179
0.0222536
0.0221831
0.0218861
0.0223487
0.0212779
0.0216883
0.0217239