# vtk DataFile Version 2.0
Gerris simulation version 1.3.2 (131206-155120)
ASCII
DATASET UNSTRUCTURED_GRID

POINTS 1089 float
-0.5 0.46875 0
-0.46875 0.46875 0
-0.5 0.5 0
-0.46875 0.5 0
-0.4375 0.46875 0
-0.4375 0.5 0
-0.5 0.4375 0
-0.46875 0.4375 0
-0.4375 0.4375 0
-0.40625 0.46875 0
-0.40625 0.5 0
-0.375 0.46875 0
-0.375 0.5 0
-0.40625 0.4375 0
-0.375 0.4375 0
-0.5 0.40625 0
-0.46875 0.40625 0
-0.4375 0.40625 0
-0.5 0.375 0
-0.46875 0.375 0
-0.4375 0.375 0
-0.40625 0.40625 0
-0.375 0.40625 0
-0.40625 0.375 0
-0.375 0.375 0
-0.34375 0.46875 0
-0.34375 0.5 0
-0.3125 0.46875 0
-0.3125 0.5 0
-0.34375 0.4375 0
-0.3125 0.4375 0
-0.28125 0.46875 0
-0.28125 0.5 0
-0.25 0.46875 0
-0.25 0.5 0
-0.28125 0.4375 0
-0.25 0.4375 0
-0.34375 0.40625 0
-0.3125 0.40625 0
-0.34375 0.375 0
-0.3125 0.375 0
-0.28125 0.40625 0
-0.25 0.40625 0
-0.28125 0.375 0
-0.25 0.375 0
-0.5 0.34375 0
-0.46875 0.34375 0
-0.4375 0.34375 0
-0.5 0.3125 0
-0.46875 0.3125 0
-0.4375 0.3125 0
-0.40625 0.34375 0
-0.375 0.34375 0
-0.40625 0.3125 0
-0.375 0.3125 0
-0.5 0.28125 0
-0.46875 0.28125 0
-0.4375 0.28125 0
-0.5 0.25 0
-0.46875 0.25 0
-0.4375 0.25 0
-0.40625 0.28125 0
-0.375 0.28125 0
-0.40625 0.25 0
-0.375 0.25 0
-0.34375 0.34375 0
-0.3125 0.34375 0
-0.34375 0.3125 0
-0.3125 0.3125 0
-0.28125 0.34375 0
-0.25 0.34375 0
-0.28125 0.3125 0
-0.25 0.3125 0
-0.34375 0.28125 0
-0.3125 0.28125 0
-0.34375 0.25 0
-0.3125 0.25 0
-0.28125 0.28125 0
-0.25 0.28125 0
-0.28125 0.25 0
-0.25 0.25 0
-0.21875 0.46875 0
-0.21875 0.5 0
-0.1875 0.46875 0
-0.1875 0.5 0
-0.21875 0.4375 0
-0.1875 0.4375 0
-0.15625 0.46875 0
-0.15625 0.5 0
-0.125 0.46875 0
-0.125 0.5 0
-0.15625 0.4375 0
-0.125 0.4375 0
-0.21875 0.40625 0
-0.1875 0.40625 0
-0.21875 0.375 0
-0.1875 0.375 0
-0.15625 0.40625 0
-0.125 0.40625 0
-0.15625 0.375 0
-0.125 0.375 0
-0.09375 0.46875 0
-0.09375 0.5 0
-0.0625 0.46875 0
-0.0625 0.5 0
-0.09375 0.4375 0
-0.0625 0.4375 0
-0.03125 0.46875 0
-0.03125 0.5 0
0 0.46875 0
0 0.5 0
-0.03125 0.4375 0
0 0.4375 0
-0.09375 0.40625 0
-0.0625 0.40625 0
-0.09375 0.375 0
-0.0625 0.375 0
-0.03125 0.40625 0
0 0.40625 0
-0.03125 0.375 0
0 0.375 0
-0.21875 0.34375 0
-0.1875 0.34375 0
-0.21875 0.3125 0
-0.1875 0.3125 0
-0.15625 0.34375 0
-0.125 0.34375 0
-0.15625 0.3125 0
-0.125 0.3125 0
-0.21875 0.28125 0
-0.1875 0.28125 0
-0.21875 0.25 0
-0.1875 0.25 0
-0.15625 0.28125 0
-0.125 0.28125 0
-0.15625 0.25 0
-0.125 0.25 0
-0.09375 0.34375 0
-0.0625 0.34375 0
-0.09375 0.3125 0
-0.0625 0.3125 0
-0.03125 0.34375 0
0 0.34375 0
-0.03125 0.3125 0
0 0.3125 0
-0.09375 0.28125 0
-0.0625 0.28125 0
-0.09375 0.25 0
-0.0625 0.25 0
-0.03125 0.28125 0
0 0.28125 0
-0.03125 0.25 0
0 0.25 0
-0.5 0.21875 0
-0.46875 0.21875 0
-0.4375 0.21875 0
-0.5 0.1875 0
-0.46875 0.1875 0
-0.4375 0.1875 0
-0.40625 0.21875 0
-0.375 0.21875 0
-0.40625 0.1875 0
-0.375 0.1875 0
-0.5 0.15625 0
-0.46875 0.15625 0
-0.4375 0.15625 0
-0.5 0.125 0
-0.46875 0.125 0
-0.4375 0.125 0
-0.40625 0.15625 0
-0.375 0.15625 0
-0.40625 0.125 0
-0.375 0.125 0
-0.34375 0.21875 0
-0.3125 0.21875 0
-0.34375 0.1875 0
-0.3125 0.1875 0
-0.28125 0.21875 0
-0.25 0.21875 0
-0.28125 0.1875 0
-0.25 0.1875 0
-0.34375 0.15625 0
-0.3125 0.15625 0
-0.34375 0.125 0
-0.3125 0.125 0
-0.28125 0.15625 0
-0.25 0.15625 0
-0.28125 0.125 0
-0.25 0.125 0
-0.5 0.09375 0
-0.46875 0.09375 0
-0.4375 0.09375 0
-0.5 0.0625 0
-0.46875 0.0625 0
-0.4375 0.0625 0
-0.40625 0.09375 0
-0.375 0.09375 0
-0.40625 0.0625 0
-0.375 0.0625 0
-0.5 0.03125 0
-0.46875 0.03125 0
-0.4375 0.03125 0
-0.5 0 0
-0.46875 0 0
-0.4375 0 0
-0.40625 0.03125 0
-0.375 0.03125 0
-0.40625 0 0
-0.375 0 0
-0.34375 0.09375 0
-0.3125 0.09375 0
-0.34375 0.0625 0
-0.3125 0.0625 0
-0.28125 0.09375 0
-0.25 0.09375 0
-0.28125 0.0625 0
-0.25 0.0625 0
-0.34375 0.03125 0
-0.3125 0.03125 0
-0.34375 0 0
-0.3125 0 0
-0.28125 0.03125 0
-0.25 0.03125 0
-0.28125 0 0
-0.25 0 0
-0.21875 0.21875 0
-0.1875 0.21875 0
-0.21875 0.1875 0
-0.1875 0.1875 0
-0.15625 0.21875 0
-0.125 0.21875 0
-0.15625 0.1875 0
-0.125 0.1875 0
-0.21875 0.15625 0
-0.1875 0.15625 0
-0.21875 0.125 0
-0.1875 0.125 0
-0.15625 0.15625 0
-0.125 0.15625 0
-0.15625 0.125 0
-0.125 0.125 0
-0.09375 0.21875 0
-0.0625 0.21875 0
-0.09375 0.1875 0
-0.0625 0.1875 0
-0.03125 0.21875 0
0 0.21875 0
-0.03125 0.1875 0
0 0.1875 0
-0.09375 0.15625 0
-0.0625 0.15625 0
-0.09375 0.125 0
-0.0625 0.125 0
-0.03125 0.15625 0
0 0.15625 0
-0.03125 0.125 0
0 0.125 0
-0.21875 0.09375 0
-0.1875 0.09375 0
-0.21875 0.0625 0
-0.1875 0.0625 0
-0.15625 0.09375 0
-0.125 0.09375 0
-0.15625 0.0625 0
-0.125 0.0625 0
-0.21875 0.03125 0
-0.1875 0.03125 0
-0.21875 0 0
-0.1875 0 0
-0.15625 0.03125 0
-0.125 0.03125 0
-0.15625 0 0
-0.125 0 0
-0.09375 0.09375 0
-0.0625 0.09375 0
-0.09375 0.0625 0
-0.0625 0.0625 0
-0.03125 0.09375 0
0 0.09375 0
-0.03125 0.0625 0
0 0.0625 0
-0.09375 0.03125 0
-0.0625 0.03125 0
-0.09375 0 0
-0.0625 0 0
-0.03125 0.03125 0
0 0.03125 0
-0.03125 0 0
0 0 0
0.03125 0.46875 0
0.03125 0.5 0
0.0625 0.46875 0
0.0625 0.5 0
0.03125 0.4375 0
0.0625 0.4375 0
0.09375 0.46875 0
0.09375 0.5 0
0.125 0.46875 0
0.125 0.5 0
0.09375 0.4375 0
0.125 0.4375 0
0.03125 0.40625 0
0.0625 0.40625 0
0.03125 0.375 0
0.0625 0.375 0
0.09375 0.40625 0
0.125 0.40625 0
0.09375 0.375 0
0.125 0.375 0
0.15625 0.46875 0
0.15625 0.5 0
0.1875 0.46875 0
0.1875 0.5 0
0.15625 0.4375 0
0.1875 0.4375 0
0.21875 0.46875 0
0.21875 0.5 0
0.25 0.46875 0
0.25 0.5 0
0.21875 0.4375 0
0.25 0.4375 0
0.15625 0.40625 0
0.1875 0.40625 0
0.15625 0.375 0
0.1875 0.375 0
0.21875 0.40625 0
0.25 0.40625 0
0.21875 0.375 0
0.25 0.375 0
0.03125 0.34375 0
0.0625 0.34375 0
0.03125 0.3125 0
0.0625 0.3125 0
0.09375 0.34375 0
0.125 0.34375 0
0.09375 0.3125 0
0.125 0.3125 0
0.03125 0.28125 0
0.0625 0.28125 0
0.03125 0.25 0
0.0625 0.25 0
0.09375 0.28125 0
0.125 0.28125 0
0.09375 0.25 0
0.125 0.25 0
0.15625 0.34375 0
0.1875 0.34375 0
0.15625 0.3125 0
0.1875 0.3125 0
0.21875 0.34375 0
0.25 0.34375 0
0.21875 0.3125 0
0.25 0.3125 0
0.15625 0.28125 0
0.1875 0.28125 0
0.15625 0.25 0
0.1875 0.25 0
0.21875 0.28125 0
0.25 0.28125 0
0.21875 0.25 0
0.25 0.25 0
0.28125 0.46875 0
0.28125 0.5 0
0.3125 0.46875 0
0.3125 0.5 0
0.28125 0.4375 0
0.3125 0.4375 0
0.34375 0.46875 0
0.34375 0.5 0
0.375 0.46875 0
0.375 0.5 0
0.34375 0.4375 0
0.375 0.4375 0
0.28125 0.40625 0
0.3125 0.40625 0
0.28125 0.375 0
0.3125 0.375 0
0.34375 0.40625 0
0.375 0.40625 0
0.34375 0.375 0
0.375 0.375 0
0.40625 0.46875 0
0.40625 0.5 0
0.4375 0.46875 0
0.4375 0.5 0
0.40625 0.4375 0
0.4375 0.4375 0
0.46875 0.46875 0
0.46875 0.5 0
0.5 0.46875 0
0.5 0.5 0
0.46875 0.4375 0
0.5 0.4375 0
0.40625 0.40625 0
0.4375 0.40625 0
0.40625 0.375 0
0.4375 0.375 0
0.46875 0.40625 0
0.5 0.40625 0
0.46875 0.375 0
0.5 0.375 0
0.28125 0.34375 0
0.3125 0.34375 0
0.28125 0.3125 0
0.3125 0.3125 0
0.34375 0.34375 0
0.375 0.34375 0
0.34375 0.3125 0
0.375 0.3125 0
0.28125 0.28125 0
0.3125 0.28125 0
0.28125 0.25 0
0.3125 0.25 0
0.34375 0.28125 0
0.375 0.28125 0
0.34375 0.25 0
0.375 0.25 0
0.40625 0.34375 0
0.4375 0.34375 0
0.40625 0.3125 0
0.4375 0.3125 0
0.46875 0.34375 0
0.5 0.34375 0
0.46875 0.3125 0
0.5 0.3125 0
0.40625 0.28125 0
0.4375 0.28125 0
0.40625 0.25 0
0.4375 0.25 0
0.46875 0.28125 0
0.5 0.28125 0
0.46875 0.25 0
0.5 0.25 0
0.03125 0.21875 0
0.0625 0.21875 0
0.03125 0.1875 0
0.0625 0.1875 0
0.09375 0.21875 0
0.125 0.21875 0
0.09375 0.1875 0
0.125 0.1875 0
0.03125 0.15625 0
0.0625 0.15625 0
0.03125 0.125 0
0.0625 0.125 0
0.09375 0.15625 0
0.125 0.15625 0
0.09375 0.125 0
0.125 0.125 0
0.15625 0.21875 0
0.1875 0.21875 0
0.15625 0.1875 0
0.1875 0.1875 0
0.21875 0.21875 0
0.25 0.21875 0
0.21875 0.1875 0
0.25 0.1875 0
0.15625 0.15625 0
0.1875 0.15625 0
0.15625 0.125 0
0.1875 0.125 0
0.21875 0.15625 0
0.25 0.15625 0
0.21875 0.125 0
0.25 0.125 0
0.03125 0.09375 0
0.0625 0.09375 0
0.03125 0.0625 0
0.0625 0.0625 0
0.09375 0.09375 0
0.125 0.09375 0
0.09375 0.0625 0
0.125 0.0625 0
0.03125 0.03125 0
0.0625 0.03125 0
0.03125 0 0
0.0625 0 0
0.09375 0.03125 0
0.125 0.03125 0
0.09375 0 0
0.125 0 0
0.15625 0.09375 0
0.1875 0.09375 0
0.15625 0.0625 0
0.1875 0.0625 0
0.21875 0.09375 0
0.25 0.09375 0
0.21875 0.0625 0
0.25 0.0625 0
0.15625 0.03125 0
0.1875 0.03125 0
0.15625 0 0
0.1875 0 0
0.21875 0.03125 0
0.25 0.03125 0
0.21875 0 0
0.25 0 0
0.28125 0.21875 0
0.3125 0.21875 0
0.28125 0.1875 0
0.3125 0.1875 0
0.34375 0.21875 0
0.375 0.21875 0
0.34375 0.1875 0
0.375 0.1875 0
0.28125 0.15625 0
0.3125 0.15625 0
0.28125 0.125 0
0.3125 0.125 0
0.34375 0.15625 0
0.375 0.15625 0
0.34375 0.125 0
0.375 0.125 0
0.40625 0.21875 0
0.4375 0.21875 0
0.40625 0.1875 0
0.4375 0.1875 0
0.46875 0.21875 0
0.5 0.21875 0
0.46875 0.1875 0
0.5 0.1875 0
0.40625 0.15625 0
0.4375 0.15625 0
0.40625 0.125 0
0.4375 0.125 0
0.46875 0.15625 0
0.5 0.15625 0
0.46875 0.125 0
0.5 0.125 0
0.28125 0.09375 0
0.3125 0.09375 0
0.28125 0.0625 0
0.3125 0.0625 0
0.34375 0.09375 0
0.375 0.09375 0
0.34375 0.0625 0
0.375 0.0625 0
0.28125 0.03125 0
0.3125 0.03125 0
0.28125 0 0
0.3125 0 0
0.34375 0.03125 0
0.375 0.03125 0
0.34375 0 0
0.375 0 0
0.40625 0.09375 0
0.4375 0.09375 0
0.40625 0.0625 0
0.4375 0.0625 0
0.46875 0.09375 0
0.5 0.09375 0
0.46875 0.0625 0
0.5 0.0625 0
0.40625 0.03125 0
0.4375 0.03125 0
0.40625 0 0
0.4375 0 0
0.46875 0.03125 0
0.5 0.03125 0
0.46875 0 0
0.5 0 0
-0.5 -0.03125 0
-0.46875 -0.03125 0
-0.4375 -0.03125 0
-0.5 -0.0625 0
-0.46875 -0.0625 0
-0.4375 -0.0625 0
-0.40625 -0.03125 0
-0.375 -0.03125 0
-0.40625 -0.0625 0
-0.375 -0.0625 0
-0.5 -0.09375 0
-0.46875 -0.09375 0
-0.4375 -0.09375 0
-0.5 -0.125 0
-0.46875 -0.125 0
-0.4375 -0.125 0
-0.40625 -0.09375 0
-0.375 -0.09375 0
-0.40625 -0.125 0
-0.375 -0.125 0
-0.34375 -0.03125 0
-0.3125 -0.03125 0
-0.34375 -0.0625 0
-0.3125 -0.0625 0
-0.28125 -0.03125 0
-0.25 -0.03125 0
-0.28125 -0.0625 0
-0.25 -0.0625 0
-0.34375 -0.09375 0
-0.3125 -0.09375 0
-0.34375 -0.125 0
-0.3125 -0.125 0
-0.28125 -0.09375 0
-0.25 -0.09375 0
-0.28125 -0.125 0
-0.25 -0.125 0
-0.5 -0.15625 0
-0.46875 -0.15625 0
-0.4375 -0.15625 0
-0.5 -0.1875 0
-0.46875 -0.1875 0
-0.4375 -0.1875 0
-0.40625 -0.15625 0
-0.375 -0.15625 0
[...]
POINT_DATA 1089
SCALARS T float
LOOKUP_TABLE default
0
0
0
0
0
0
0
0
0
0
0
0
0
0
0
0
0
0
0
0
0
0
0
0
0
0
0
0
0
0
0
0
0
0
0
0
0
0
0
0
0
0
0
0
0
0
0
0
0
0
0
0
0
0
0
0
0
0
0
0
0
0
0
0
0
0
0
0
0
0
0
0
0
0
0
0
0
0
0
0
0
0
0
0
0
0
0
0
0
0
0
0
0
0
0
0
0
0
0
0
0
0
0
0
0
0
0
0
0
0
0
0
0
0
0
0
0
0
0
0
0
0
0
0
0
0
0
0
0
0
0
0
0
0
0
0
0
0
0
0
0
0
0
0
0
0
0
0
0
0
0
0
0
0
0
0
0
0
0
0
0
0
0
0
0
0
0
0
0
0
0
0
0
0
0
0
0
0
0
0
0
0
0
0
0
0
0
0
0
0
0
0
0
0
0
0
0
0
0
0
0
0
0
0
0
0
0
0
0
0
0
0
0
0
0
0
0
0
0
0
0
0
0.0767868
0.000597417
0.28599
0
0
0
0
0
0
0
0
0
0
0
0
0
0
0
0
0
0
0
0
0
0
0
0
0
0
0
0
0
0
0
0
0
0.044096
0.108128
0.399923
0.195887
0.360038
0.693586
0.860038
0.434528
0.855441
0.785006
0.999614
0.997699
1
1
1
0.42717
0.404917
0.92717
0.904917
0.29255
0.116688
0.79255
0.578545
1
1
1
1
1
0.961857
1
1
0
0
0
0
0
0
0
0
0
0
0
0
0
0
0
0
0
0
0
0
0
0
0
0
0
0
0
0
0
0
0
0
0
0
0
0
0
0
0
0
0
0
0
0
0
0
0
0
0
0
0
0
0
0
0
0
0
0.0407986
0.00690464
0.262608
0.220896
0.409921
0.685801
0.909921
0.0634386
0.528343
0.102309
0.602309
0.964905
1
1
1
0
0
0
0
0
0
0
0
0
0
0
0
0
0
0
0
0
0
0
0
0
0
0
0
0
0
0
0
0
0
0
0
0
0
0
0
0
0
0
0
0.416764
0.239778
0.916764
0.715742
0.052838
0
0.296195
0.0173932
1
0.975964
1
1
0.576429
0.100465
0.658104
0.158104
0
0
0
0
0
0
0
0
0
0
0
0
0
0
0
0
0
0
0
0
0
0
0
0
0
0
0
0
0
0
0
0
0.0462731
0.480258
0.000498222
0.196505
0.933985
1
0.567142
0.793382
0
0.0120217
0
0
0.133157
0.293382
0
0
0.0101326
0
0.261295
0.0393061
0
0
0
0
0.716015
0.267613
0.964852
0.594335
0.013454
0
0.129483
0
0
0
0
0
0
0
0
0
0
0
0
0
0
0
0
0.00643943
1
0.953686
0.802732
0.603734
0.538371
0.0846844
0.232901
0.00965295
0.302732
0.150048
0
0
0.0195621
0
0
0
0
0
0
0
0
0
0
0
0
0
0
0
0
0
0
0
0
0
0
0
0
0
0
0
0
0
0.142929
0.31965
0
0
0.274634
0.0914741
0
0
0
0
0
0
0
0
0
0
0
0
0
0
0
0
0
0
0
0
0
0
0
0
0
0
0
0
0
0
0
0
0
0
0
0
0
0
0
0
0.0328767
0.491482
0.0880935
0.588094
0
0
0
0
0.0878013
0.587801
0.0322182
0.490536
0
0
0
0
0
0
0
0
0
0
0
0
0
0
0
0
0
0
0
0
0
0
0
0
0.000231143
0.284658
0
0.0761092
0
0
0
0
0
0
0
0
0.958605
1
1
1
1
1
1
1
1
1
0.958318
1
1
1
1
1
1
1
1
1
1
1
1
1
1
1
1
1
1
1
1
1
0.784106
0.999679
0.435268
0.857387
1
1
0.998228
1
0.10948
0.404556
0
0.0468483
0.702865
0.874839
0.204637
0.374839
1
1
1
1
1
1
1
0.972922
0.947726
0.931446
0.447726
0.431446
0.82517
0.616284
0.32517
0.143362
0
0
0
0
0
0
0
0
0
0
0
0
0
0
0
0
0
0
0
0
0
0
0
0
0
0
0
0
0
0
0
0
0
0
0
0
0
0
0
0
0
0
0
0
0
0
0
0
0
0
0
0
0
0
0
0
0
0
0
0
0
0
0
0
0
0
0
0
0
0
0
0
0
0
0
0
0
0
0
0
0
0
0
0
0
0
0
0
0
0
0
0
0
0
0
0
0
0
0
0
0
0
0
0
0
0
0
0
0
0
0
0
0
0
0
0
0
0
0
0
0
0
0
0
0
0
0
0
0
0
0
0
0
0
0
0
1
0.808876
1
0.911726
0.308876
0
0.411726
0
1
0.915954
1
0.822004
0.415954
0
0.322004
0
0
0
0
0
0
0.122171
0
0.257607
0
0
0
0
0
0.184619
0
0.0427443
0.97617
0.617594
0.74948
0.293054
0.141424
0
0.0164962
0
0.292273
0.0503879
0.0189628
0
0
0
0
0
0
0
0
0
0
0
0
0
0
0
0
0
0
0
0
0
0.508661
0.81965
0.757607
1
0.768639
0.375585
0.994005
0.598411
0.662674
0.978055
0.278149
0.518042
0.935522
0.509035
0.47006
0.196636
0.0401065
0
0.104406
0
0
0
0
0
0.0735131
0
0.00921328
0
0
0
0
0
0.00734959
0.0399866
0
0
0.0345383
0.00190126
0
0
0
0
0
0
0
0
0
0
0
0
0
0
0
0
0
0
0
0
0
0
0
0
0
0
0
0
0
0
0
0
0
0
0
0
0
0
0
0
0
0
0
0
0
0
0
0
0
0
0
0
0
0
0
0
0
0
0
0
0
0
0
0
0
0
0
0
0
0
0
0
0
0
0
0
0
0
0
0
0
0
0
0
0
0
0
0
0
0
0
0
0
0
0
0
0
0
0
0
0
0
0
0
0
0
0
0
0
0
0
0
0
0
0
0
0
0
0
0
0
0
0
0
0
0
0
0
0
0
0
0
0
0
0
0
0
0
0
0
0
0
0
0
0
0
0
0
0
0
0
0
0
0

SCALARS P float
LOOKUP_TABLE default
-0.0112989
-0.0113005
-0.0113076
-0.0113079
-0.0112945
-0.0113007
-0.0112932
-0.0112967
-0.011292
-0.0112817
-0.0112867
-0.0112624
-0.0112663
-0.0112805
-0.0112624
-0.0112885
-0.0112957
-0.0112933
-0.011297
-0.0113037
-0.0113013
-0.0112834
-0.0112664
-0.0112918
-0.0112752
-0.0112369
-0.0112395
-0.0112057
-0.0112065
-0.0112381
-0.011208
-0.0111693
-0.011168
-0.0111288
-0.0111246
-0.011173
-0.0111339
-0.011243
-0.0112136
-0.0112521
-0.0112228
-0.0111789
-0.0111399
-0.0111875
-0.0111472
-0.0112984
-0.0113113
-0.011312
-0.0113311
-0.0113379
-0.0113346
-0.0113041
-0.0112884
-0.0113249
-0.0113082
-0.0113782
-0.0113726
-0.0113632
-0.0114291
-0.0114107
-0.0113957
-0.0113511
-0.0113336
-0.0113819
-0.0113647
-0.0112656
-0.0112359
-0.0112849
-0.0112543
-0.0111994
-0.0111565
-0.0112158
-0.0111693
-0.01131
-0.0112789
-0.011342
-0.0113116
-0.0112383
-0.0111876
-0.0112699
-0.0112151
-0.0110855
-0.0110778
-0.0110417
-0.0110299
-0.0110921
-0.0110498
-0.011
-0.0109839
-0.0109638
-0.010944
-0.0110095
-0.010974
-0.0110978
-0.0110547
-0.0111029
-0.0110565
-0.011013
-0.0109759
-0.0110108
-0.0109693
-0.0109363
-0.0109144
-0.01092
-0.0108984
-0.0109466
-0.0109295
-0.0109162
-0.010897
-0.0109245
-0.0109094
-0.0109241
-0.0109304
-0.0109466
-0.0109277
-0.0109364
-0.0109149
-0.010921
-0.0109261
-0.010907
-0.0109124
-0.011108
-0.0110558
-0.0111146
-0.0110537
-0.0110029
-0.0109539
-0.0109897
-0.0109288
-0.0111248
-0.0110518
-0.0111427
-0.0110535
-0.0109712
-0.0108924
-0.0109487
-0.0108422
-0.0109149
-0.0108892
-0.0108803
-0.0108486
-0.0108797
-0.0108855
-0.0108378
-0.0108459
-0.0108295
-0.0107892
-0.0107575
-0.0107047
-0.0107774
-0.0107903
-0.0106923
-0.010713
-0.0114956
-0.0114564
-0.0114332
-0.0115093
-0.0114792
-0.0114626
-0.0114176
-0.0114018
-0.0114529
-0.0114435
-0.0114972
-0.0114911
-0.0114884
-0.0114932
-0.0115035
-0.0115141
-0.0114892
-0.0114901
-0.0115275
-0.0115424
-0.0113819
-0.0113544
-0.0114307
-0.0114108
-0.0113136
-0.0112567
-0.0113761
-0.0113222
-0.0114889
-0.0114821
-0.0115584
-0.011575
-0.0114618
-0.0114224
-0.0115856
-0.0115852
-0.0115005
-0.0115214
-0.0115425
-0.0115147
-0.0115412
-0.0115699
-0.0115675
-0.0115965
-0.0116045
-0.0116467
-0.0115316
-0.0115608
-0.0115937
-0.011562
-0.0115853
-0.0116141
-0.0116326
-0.0116826
-0.0116491
-0.0116971
-0.0116325
-0.0116805
-0.0117066
-0.0117946
-0.0117409
-0.0118263
-0.011931
-0.0121677
-0.0117569
-0.0118721
-0.0117697
-0.0118859
-0.0120667
-0.00744507
-0.0119908
0.00568595
-0.0111747
-0.0110656
-0.0112326
-0.0110982
-0.0109249
-0.010775
-0.0109035
-0.0106867
-0.011338
-0.0111845
-0.0115361
-0.0113719
-0.0109091
-0.0105767
-0.010981
-0.0104708
-0.010657
-0.010588
-0.0105163
-0.0104251
-0.0105805
-0.0106252
-0.010429
-0.0105166
-0.010316
-0.0101952
-0.0100634
-0.00989462
-0.0102242
-0.0103892
-0.00996209
-0.0102686
-0.0119054
-0.0092545
-0.00571782
0.0118457
-0.000145643
0.00959595
0.0290989
0.0384744
0.0142382
0.0394654
0.0358705
0.0482382
0.0476945
0.0474899
0.0480028
0.0477759
0.0135126
0.0122414
0.0419841
0.0404927
0.00588616
-0.00410611
0.0341103
0.0220049
0.0472265
0.0470466
0.0476099
0.0475156
0.0469776
0.044793
0.0475251
0.0477323
-0.0109435
-0.0109329
-0.0109704
-0.0109642
-0.0109474
-0.0109726
-0.0110041
-0.0110011
-0.0110392
-0.0110391
-0.0110054
-0.01104
-0.0109421
-0.0109662
-0.0109297
-0.0109563
-0.0109984
-0.0110338
-0.0109942
-0.0110378
-0.0110791
-0.0110789
-0.0111103
-0.0111124
-0.0110838
-0.0111118
-0.0111492
-0.0111467
-0.0111632
-0.0111684
-0.0111579
-0.0111529
-0.0110853
-0.0111139
-0.0111009
-0.0111195
-0.0112075
-0.0111872
-0.0112578
-0.011186
-0.0109035
-0.0109324
-0.0108685
-0.0109066
-0.010971
-0.0110184
-0.0109549
-0.0110449
-0.0108198
-0.0108618
-0.0107496
-0.0107874
-0.0109111
-0.0109973
-0.0108134
-0.0108227
-0.0110766
-0.00626067
-0.0102145
0.0205257
0.0150547
0.0373009
0.0710219
0.0971278
-0.00304634
0.0526798
0.00218267
0.0617017
0.104508
0.108371
0.10828
0.10825
-0.0111728
-0.0111881
-0.0111849
-0.0112066
-0.0111402
-0.011151
-0.0112036
-0.0112274
-0.0112346
-0.0112537
-0.0111763
-0.0112179
-0.0111198
-0.0111213
-0.0110054
-0.0110447
-0.0111355
-0.011178
-0.0111178
-0.0111768
-0.0112504
-0.0112701
-0.0112756
-0.0112895
-0.0112326
-0.0112654
-0.0112894
-0.0113011
-0.0112989
-0.0113085
-0.0112808
-0.0112932
-0.0111957
-0.0112464
-0.0111995
-0.0112574
-0.011269
-0.0112885
-0.0112776
-0.011297
0.0377774
0.0165201
0.097308
0.0728265
-0.00523371
-0.0110474
0.0232788
-0.00907542
0.108142
0.104889
0.1082
0.108244
0.0566385
0.000150329
0.0665256
0.00657
-0.0111315
-0.0112236
-0.0111519
-0.0112542
-0.0112671
-0.0112984
-0.0113089
-0.0113311
-0.0113528
-0.0113644
-0.0115915
-0.0114977
-0.011382
-0.0113782
-0.0114591
-0.0114291
-0.01069
-0.0107526
-0.0106312
-0.0107316
-0.0107969
-0.0108194
-0.0108136
-0.010878
-0.010585
-0.0107293
-0.010594
-0.0107775
-0.0108447
-0.0109191
-0.0109172
-0.0109889
-0.00480462
0.0473631
-0.0108013
0.0132004
0.100963
0.108359
0.0577669
0.0842628
-0.0109836
-0.00945746
-0.0110487
-0.0110869
0.00536031
0.0245362
-0.0111086
-0.0110491
-0.0102162
-0.0109345
0.00375348
-0.00910342
-0.0110685
-0.0110977
-0.0113027
-0.0112531
0.0304094
0.00398704
0.0458318
0.0236336
-0.0108863
-0.0114839
-0.00414855
-0.0116928
-0.0111271
-0.0111382
-0.0112385
-0.0112195
-0.0111355
-0.0111152
-0.0111838
-0.011177
-0.0113799
-0.0113222
-0.0115132
-0.0114183
-0.0112558
-0.0112601
-0.0113184
-0.0101456
0.108399
0.10281
0.0849509
0.0611777
0.0521016
-0.00254976
0.0162232
-0.0110359
0.0252618
0.00725073
-0.010945
-0.0107405
-0.00846016
-0.0113858
-0.0109419
-0.0113428
-0.0119912
-0.0117107
-0.0118599
-0.0116734
-0.011571
-0.0114956
-0.0115676
-0.0115093
-0.0114592
-0.0115042
-0.0114088
-0.0114595
-0.0115057
-0.0114972
-0.0114792
-0.0114932
-0.0110558
-0.0109791
-0.0111246
-0.0111131
-0.0111272
-0.0113149
-0.0112921
-0.0113488
-0.0111756
-0.0111911
0.0142106
0.0455471
-0.0114686
-0.0114221
0.0367253
0.0043415
-0.0113771
-0.0114445
-0.0113706
-0.0114524
-0.0114717
-0.0115005
-0.0114766
-0.0115147
-0.0113674
-0.0114677
-0.0113246
-0.0114982
-0.0114858
-0.0115316
-0.0115203
-0.011562
-0.0115851
-0.0116046
-0.0116276
-0.0116374
-0.0116344
-0.0116419
-0.0116558
-0.0116979
-0.0116601
-0.0116952
-0.0116937
-0.0116618
-0.0116517
-0.011687
-0.0116559
-0.011644
-0.0116588
-0.0116843
-0.0116464
-0.0116657
-0.0117603
-0.0118597
-0.0117512
-0.011846
-0.00957851
0.0183919
-0.00584103
0.0243376
-0.0117318
-0.0118234
-0.011704
-0.0117874
-0.00582429
0.0243042
-0.00953157
0.0183182
-0.0116551
-0.0116326
-0.0116227
-0.0116139
-0.0115995
-0.0115924
-0.0116235
-0.0116371
-0.0115926
-0.0116018
-0.0115683
-0.0115606
-0.0115558
-0.0115226
-0.011519
-0.0115146
-0.0115553
-0.0115602
-0.0115107
-0.0115074
-0.0116698
-0.0117397
-0.0116292
-0.0116807
-0.0118237
0.00579847
-0.0118029
-0.00709078
-0.0115783
-0.0116109
-0.0115083
-0.0115106
-0.0116888
-0.0118061
-0.011523
-0.0115378
0.0461764
0.0482605
0.0483874
0.0482679
0.0481066
0.0479624
0.0481454
0.0480317
0.0483077
0.048196
0.045973
0.0480539
0.0480904
0.047995
0.0479571
0.0478635
0.0478615
0.0478194
0.047965
0.0479594
0.0478627
0.0480352
0.0480371
0.0482191
0.0479462
0.0479562
0.0478125
0.0478184
0.0480468
0.0482301
0.0479092
0.0480918
0.0356883
0.0478699
0.0145764
0.0394592
0.0477483
0.0476262
0.04744
0.0473147
-0.0050984
0.0126123
-0.0115258
-0.00854386
0.0299697
0.0396276
0.000960533
0.0109122
0.0475485
0.0475331
0.047167
0.0471056
0.047627
0.0478387
0.0471866
0.0457865
0.0435138
0.0424573
0.0150781
0.0141128
0.0364803
0.0245878
0.00798701
-0.00259654
-0.011481
-0.0114788
-0.0114736
-0.0114426
-0.011441
-0.0114346
-0.0114661
-0.0114559
-0.0114239
-0.0114079
-0.0114092
-0.0114073
-0.0113997
-0.0113801
-0.0113781
-0.0113696
-0.0113864
-0.0113667
-0.0113549
-0.0113331
-0.0114441
-0.0114268
-0.0113867
-0.0113563
-0.0114023
-0.0113621
-0.0113131
-0.011251
-0.01134
-0.0113031
-0.0113037
-0.0112646
-0.0112529
-0.0111851
-0.0112137
-0.0111488
-0.0113558
-0.0113536
-0.0113447
-0.0113359
-0.0113339
-0.0113252
-0.0113294
-0.0113069
-0.0113099
-0.0112876
-0.0113202
-0.0113189
-0.0113107
-0.0113085
-0.0113079
-0.0113007
-0.0112959
-0.0112744
-0.0112867
-0.0112663
-0.011277
-0.0112383
-0.0112583
-0.0112212
-0.0111899
-0.0111307
-0.0111762
-0.0111232
-0.0112463
-0.0112113
-0.0112395
-0.0112065
-0.0111698
-0.0111222
-0.011168
-0.0111246
-0.0112717
-0.011089
-0.0111483
-0.0109946
-0.0107475
-0.0103366
-0.0107555
-0.0104841
-0.0110877
-0.0109608
-0.0110645
-0.0109639
-0.010796
-0.0106255
-0.0108456
-0.0107296
-0.0100365
-0.00996868
-0.010293
-0.0102478
-0.0101705
-0.010521
-0.0103684
-0.0105821
-0.0105069
-0.0104721
-0.0106496
-0.0106233
-0.0105334
-0.0106581
-0.0106576
-0.0107345
-0.0110592
-0.0109786
-0.0110624
-0.0109969
-0.0108917
-0.0108109
-0.01093
-0.0108699
-0.0110696
-0.0110147
-0.0110778
-0.0110299
-0.0109607
-0.0109134
-0.0109839
-0.010944
-0.0107546
-0.010733
-0.0108275
-0.0108092
-0.0107499
-0.0107969
-0.0108171
-0.0108469
-0.0108793
-0.0108625
-0.0109144
-0.0108984
-0.0108647
-0.0108836
-0.010897
-0.0109094
0.0483036
0.0369673
0.0484723
0.043436
0.00677362
-0.0118101
0.0131087
-0.0119015
0.0484803
0.0437146
0.0483625
0.0378524
0.013369
-0.0119132
0.00756233
-0.011884
-0.0115929
-0.0114765
-0.0116503
-0.0115019
-0.0113695
0.011116
-0.0113712
0.0360857
-0.0116457
-0.0114415
-0.0116137
-0.0113829
-0.0112947
0.0229637
-0.0112335
-0.00295359
0.0467029
0.0252123
0.0327459
0.00555956
-0.00349995
-0.0118254
-0.0109309
-0.0116793
0.0056406
-0.00866883
-0.00997634
-0.0112463
-0.0115886
-0.0114834
-0.011319
-0.0113219
-0.0115817
-0.0113854
-0.0115045
-0.0113643
-0.0112453
-0.0110168
-0.0112663
-0.0111738
-0.0114028
-0.0113255
-0.0113104
-0.0112844
-0.0112695
-0.0112276
-0.0112655
-0.0112573
0.0807863
0.136415
0.126828
0.170586
0.126884
0.0553473
0.170226
0.0965297
0.110078
0.167105
0.0403167
0.0838681
0.159779
0.0808448
0.0746896
0.0239916
-0.00488858
-0.0115051
0.00595398
-0.0116785
-0.0115522
-0.0115851
-0.0116652
-0.0116374
0.000713509
-0.0118891
-0.0104329
-0.0118457
-0.011782
-0.0116937
-0.0117574
-0.011687
-0.00944451
-0.00353485
-0.0111168
-0.0112795
-0.0050093
-0.0114462
-0.0115117
-0.0116418
-0.0112124
-0.0113176
-0.0112628
-0.0113238
-0.0114546
-0.0115355
-0.0114043
-0.0114634
-0.0118107
-0.0117373
-0.0116722
-0.011654
-0.011696
-0.0116551
-0.0116359
-0.0116139
-0.0115726
-0.0115798
-0.0115004
-0.0115177
-0.0115772
-0.0115683
-0.0115238
-0.0115226
-0.0108392
-0.0110411
-0.0107926
-0.0109521
-0.0111519
-0.0112048
-0.0110612
-0.0111298
-0.0107967
-0.0109181
-0.0108269
-0.0109162
-0.011013
-0.0110822
-0.0109936
-0.0110564
-0.0112316
-0.011239
-0.0111746
-0.0112019
-0.0112446
-0.0112545
-0.0112236
-0.0112451
-0.0111334
-0.0111704
-0.0111073
-0.0111479
-0.011201
-0.0112289
-0.0111827
-0.0112136
-0.0108594
-0.0109255
-0.0108903
-0.0109398
-0.010988
-0.0110431
-0.0109905
-0.0110384
-0.0109147
-0.0109531
-0.0109329
-0.0109642
-0.0109954
-0.0110375
-0.0110011
-0.0110391
-0.0110913
-0.011132
-0.011083
-0.011122
-0.011168
-0.0111994
-0.0111575
-0.0111876
-0.011079
-0.0111156
-0.0110789
-0.0111124
-0.0111502
-0.0111773
-0.0111467
-0.0111684
-0.0112721
-0.0113185
-0.0112691
-0.0113056
-0.0113746
-0.0114191
-0.0113463
-0.0113817
-0.0112567
-0.0112894
-0.0112426
-0.0112726
-0.0113231
-0.0113531
-0.0113016
-0.0113281
-0.0114508
-0.0114697
-0.0114093
-0.0114281
-0.0114789
-0.011481
-0.0114388
-0.0114426
-0.0113771
-0.0113946
-0.0113496
-0.0113659
-0.0114051
-0.0114092
-0.0113761
-0.0113801
-0.0112284
-0.0112562
-0.0112151
-0.0112405
-0.0112825
-0.0113069
-0.0112645
-0.0112879
-0.0112021
-0.0112246
-0.0111881
-0.0112066
-0.0112469
-0.0112708
-0.0112274
-0.0112537
-0.0113264
-0.0113419
-0.0113061
-0.0113216
-0.0113518
-0.0113558
-0.0113315
-0.0113359
-0.011288
-0.0113045
-0.0112701
-0.0112895
-0.0113149
-0.0113202
-0.0113011
-0.0113076

SCALARS U float
LOOKUP_TABLE default
0.0200079
0.0199068
0.0196809
0.0196012
0.0198149
0.0195306
0.0203312
0.0201944
0.0200714
0.019733
0.0194629
0.0196632
0.0194004
0.0199634
0.0198716
0.0206099
0.0204378
0.0202822
0.0207913
0.0206041
0.0204259
0.0201427
0.0200202
0.0202569
0.0200987
0.0196086
0.019347
0.0195734
0.0193098
0.0197988
0.0197477
0.019563
0.0192981
0.0195834
0.0193235
0.0197216
0.0197238
0.0199176
0.0198376
0.0199571
0.0198366
0.0197837
0.0197591
0.0197435
0.0196838
0.0208872
0.0206961
0.0205
0.0208144
0.0206815
0.0204911
0.0202997
0.0200981
0.0202626
0.0200084
0.020804
0.0206733
0.0204539
0.0209121
0.0207054
0.0204109
0.0201702
0.0198369
0.0200386
0.0195959
0.0199052
0.0197291
0.0197472
0.0194938
0.0195815
0.0194751
0.0192691
0.0190961
0.0194787
0.0191156
0.0191075
0.0185952
0.0187794
0.0185061
0.0180996
0.0176684
0.0196408
0.0193993
0.0197391
0.0195356
0.0197574
0.0198235
0.0198792
0.0197392
0.0200537
0.0200028
0.0199204
0.0200412
0.0197668
0.0198086
0.0196645
0.0196916
0.0198827
0.0199825
0.0197656
0.0198808
0.0202457
0.0203022
0.0204321
0.0206003
0.0201724
0.0202969
0.0205888
0.0208574
0.0206974
0.0210429
0.0203978
0.0204621
0.0200946
0.0202025
0.0200206
0.020163
0.0202899
0.0203435
0.0202873
0.0203747
0.0194251
0.0194473
0.0190051
0.0190295
0.0195477
0.0197228
0.0191872
0.0194797
0.0183492
0.0183731
0.0173891
0.0173817
0.0186201
0.0191043
0.0177411
0.0185168
0.0199472
0.020186
0.0198644
0.0202798
0.0204058
0.020578
0.0206686
0.0209895
0.0197505
0.0204453
0.0195757
0.0206996
0.0210815
0.0215888
0.02168
0.0223742
0.0209881
0.0207281
0.0203567
0.0211002
0.0207711
0.0203189
0.0198836
0.0193132
0.0197462
0.0190475
0.0211563
0.0207967
0.0203045
0.0211179
0.0208079
0.0203515
0.0196727
0.0188798
0.0197385
0.0189243
0.0186678
0.0179641
0.0182324
0.0172918
0.0172417
0.0165466
0.0162329
0.0150653
0.0179043
0.0166749
0.0178346
0.0162838
0.0151073
0.0131225
0.0140238
0.0108691
0.0209925
0.0208163
0.0204937
0.0208579
0.0208772
0.0207846
0.020011
0.0193
0.0205697
0.0201595
0.02072
0.0209797
0.0212057
0.0205503
0.0210835
0.0216767
0.0214072
0.0215452
0.0223839
0.0232532
0.0182129
0.0164273
0.0193554
0.0178284
0.013572
0.00961146
0.0153792
0.0126757
0.0214789
0.0210982
0.0243257
0.0258175
0.0206219
0.021253
0.0281979
0.0318569
0.0160169
0.0158762
0.0140084
0.0134969
0.0163424
0.0175622
0.0140213
0.0159451
0.0110942
0.00984234
0.00750731
0.00550733
0.010362
0.0133863
0.00643625
0.0108522
0.0192997
0.021129
0.0188458
0.0218935
0.0226429
0.0235511
0.0242963
0.0254959
0.0181224
0.0230718
0.0172884
0.023882
0.026892
0.0285986
0.0292219
0.0319339
0.00595587
0.00512655
0.0118491
0.0145057
0.0079173
0.0127307
0.018572
0.0205008
0.0242636
0.0282864
0.0356743
0.0369487
0.029829
0.0270675
0.0342749
0.0286619
0.0177976
0.0226094
0.0199832
0.0189398
0.0273109
0.0311346
0.0193844
0.0224708
0.0215927
0.0158205
0.0219363
0.0152194
0.0116811
0.0111052
0.00922024
0.00493362
0.0207479
0.02114
0.0207455
0.0211521
0.0204826
0.0204637
0.0206987
0.0210914
0.0206461
0.0209907
0.020411
0.0203741
0.0203546
0.020324
0.0204156
0.0204048
0.0202519
0.0201889
0.0203254
0.0201934
0.0206035
0.020868
0.0206421
0.0207621
0.0203699
0.0205527
0.0206798
0.0206485
0.0205656
0.020466
0.0207494
0.0206596
0.0201499
0.0204675
0.0199844
0.0201498
0.0208069
0.0206351
0.0203367
0.0200924
0.020696
0.0207442
0.0212491
0.0214498
0.020701
0.0205258
0.02165
0.0218534
0.0219816
0.0223093
0.022796
0.0230305
0.0226867
0.0232107
0.0231922
0.0233766
0.0202427
0.019898
0.0223705
0.0224199
0.0196878
0.0200747
0.0217522
0.021628
0.0240245
0.02426
0.0232938
0.022745
0.0236172
0.0229107
0.0225932
0.0228128
0.0203931
0.0202648
0.0203119
0.0201168
0.0204612
0.0204494
0.0203745
0.0200532
0.0203838
0.0199905
0.0207174
0.0208259
0.0203102
0.0203882
0.0199482
0.0205204
0.0210313
0.0212942
0.02168
0.0218521
0.0203062
0.0199071
0.0202226
0.0198319
0.0207286
0.0206257
0.0201131
0.0197509
0.0200079
0.019669
0.0204744
0.0203312
0.0211231
0.0209901
0.021393
0.0212033
0.0207903
0.0206099
0.02098
0.0207913
0.0208288
0.0217773
0.021785
0.0212031
0.0224459
0.0220245
0.0200414
0.0198776
0.0221967
0.0208094
0.0227597
0.0224494
0.0192658
0.0194707
0.0219436
0.0216543
0.0214672
0.0212781
0.0204787
0.0207561
0.0210684
0.0208872
0.0208577
0.0208144
0.020343
0.0206361
0.0213788
0.0211105
0.0208167
0.020804
0.0210394
0.0209121
0.0238919
0.0238308
0.0255907
0.0249452
0.0235849
0.0232637
0.0239792
0.0229647
0.0283446
0.0268398
0.0317497
0.0294611
0.0248426
0.0230129
0.0262797
0.023535
0.0228287
0.0222197
0.0221507
0.0214213
0.0219829
0.0223081
0.0209266
0.0212248
0.0215881
0.0206921
0.0217219
0.0209439
0.0204115
0.0205195
0.0208087
0.0203667
0.0326366
0.0310061
0.0265972
0.0279744
0.027159
0.0234609
0.0254643
0.0219534
0.0142115
0.0178897
0.00372454
0.00616478
0.0189726
0.0179558
0.00988136
0.0122841
0.0211049
0.0199909
0.0194939
0.0181201
0.0195965