# vtk DataFile Version 2.0
Gerris simulation version 1.3.2 (131206-155120)
ASCII
DATASET UNSTRUCTURED_GRID

POINTS 1089 float
-0.5 0.46875 0
-0.46875 0.46875 0
-0.5 0.5 0
-0.46875 0.5 0
-0.4375 0.46875 0
-0.4375 0.5 0
-0.5 0.4375 0
-0.46875 0.4375 0
-0.4375 0.4375 0
-0.40625 0.46875 0
-0.40625 0.5 0
-0.375 0.46875 0
-0.375 0.5 0
-0.40625 0.4375 0
-0.375 0.4375 0
-0.5 0.40625 0
-0.46875 0.40625 0
-0.4375 0.40625 0
-0.5 0.375 0
-0.46875 0.375 0
-0.4375 0.375 0
-0.40625 0.40625 0
-0.375 0.40625 0
-0.40625 0.375 0
-0.375 0.375 0
-0.34375 0.46875 0
-0.34375 0.5 0
-0.3125 0.46875 0
-0.3125 0.5 0
-0.34375 0.4375 0
-0.3125 0.4375 0
-0.28125 0.46875 0
-0.28125 0.5 0
-0.25 0.46875 0
-0.25 0.5 0
-0.28125 0.4375 0
-0.25 0.4375 0
-0.34375 0.40625 0
-0.3125 0.40625 0
-0.34375 0.375 0
-0.3125 0.375 0
-0.28125 0.40625 0
-0.25 0.40625 0
-0.28125 0.375 0
-0.25 0.375 0
-0.5 0.34375 0
-0.46875 0.34375 0
-0.4375 0.34375 0
-0.5 0.3125 0
-0.46875 0.3125 0
-0.4375 0.3125 0
-0.40625 0.34375 0
-0.375 0.34375 0
-0.40625 0.3125 0
-0.375 0.3125 0
-0.5 0.28125 0
-0.46875 0.28125 0
-0.4375 0.28125 0
-0.5 0.25 0
-0.46875 0.25 0
-0.4375 0.25 0
-0.40625 0.28125 0
-0.375 0.28125 0
-0.40625 0.25 0
-0.375 0.25 0
-0.34375 0.34375 0
-0.3125 0.34375 0
-0.34375 0.3125 0
-0.3125 0.3125 0
-0.28125 0.34375 0
-0.25 0.34375 0
-0.28125 0.3125 0
-0.25 0.3125 0
-0.34375 0.28125 0
-0.3125 0.28125 0
-0.34375 0.25 0
-0.3125 0.25 0
-0.28125 0.28125 0
-0.25 0.28125 0
-0.28125 0.25 0
-0.25 0.25 0
-0.21875 0.46875 0
-0.21875 0.5 0
-0.1875 0.46875 0
-0.1875 0.5 0
-0.21875 0.4375 0
-0.1875 0.4375 0
-0.15625 0.46875 0
-0.15625 0.5 0
-0.125 0.46875 0
-0.125 0.5 0
-0.15625 0.4375 0
-0.125 0.4375 0
-0.21875 0.40625 0
-0.1875 0.40625 0
-0.21875 0.375 0
-0.1875 0.375 0
-0.15625 0.40625 0
-0.125 0.40625 0
-0.15625 0.375 0
-0.125 0.375 0
-0.09375 0.46875 0
-0.09375 0.5 0
-0.0625 0.46875 0
-0.0625 0.5 0
-0.09375 0.4375 0
-0.0625 0.4375 0
-0.03125 0.46875 0
-0.03125 0.5 0
0 0.46875 0
0 0.5 0
-0.03125 0.4375 0
0 0.4375 0
-0.09375 0.40625 0
-0.0625 0.40625 0
-0.09375 0.375 0
-0.0625 0.375 0
-0.03125 0.40625 0
0 0.40625 0
-0.03125 0.375 0
0 0.375 0
-0.21875 0.34375 0
-0.1875 0.34375 0
-0.21875 0.3125 0
-0.1875 0.3125 0
-0.15625 0.34375 0
-0.125 0.34375 0
-0.15625 0.3125 0
-0.125 0.3125 0
-0.21875 0.28125 0
-0.1875 0.28125 0
-0.21875 0.25 0
-0.1875 0.25 0
-0.15625 0.28125 0
-0.125 0.28125 0
-0.15625 0.25 0
-0.125 0.25 0
-0.09375 0.34375 0
-0.0625 0.34375 0
-0.09375 0.3125 0
-0.0625 0.3125 0
-0.03125 0.34375 0
0 0.34375 0
-0.03125 0.3125 0
0 0.3125 0
-0.09375 0.28125 0
-0.0625 0.28125 0
-0.09375 0.25 0
-0.0625 0.25 0
-0.03125 0.28125 0
0 0.28125 0
-0.03125 0.25 0
0 0.25 0
-0.5 0.21875 0
-0.46875 0.21875 0
-0.4375 0.21875 0
-0.5 0.1875 0
-0.46875 0.1875 0
-0.4375 0.1875 0
-0.40625 0.21875 0
-0.375 0.21875 0
-0.40625 0.1875 0
-0.375 0.1875 0
-0.5 0.15625 0
-0.46875 0.15625 0
-0.4375 0.15625 0
-0.5 0.125 0
-0.46875 0.125 0
-0.4375 0.125 0
-0.40625 0.15625 0
-0.375 0.15625 0
-0.40625 0.125 0
-0.375 0.125 0
-0.34375 0.21875 0
-0.3125 0.21875 0
-0.34375 0.1875 0
-0.3125 0.1875 0
-0.28125 0.21875 0
-0.25 0.21875 0
-0.28125 0.1875 0
-0.25 0.1875 0
-0.34375 0.15625 0
-0.3125 0.15625 0
-0.34375 0.125 0
-0.3125 0.125 0
-0.28125 0.15625 0
-0.25 0.15625 0
-0.28125 0.125 0
-0.25 0.125 0
-0.5 0.09375 0
-0.46875 0.09375 0
-0.4375 0.09375 0
-0.5 0.0625 0
-0.46875 0.0625 0
-0.4375 0.0625 0
-0.40625 0.09375 0
-0.375 0.09375 0
-0.40625 0.0625 0
-0.375 0.0625 0
-0.5 0.03125 0
-0.46875 0.03125 0
-0.4375 0.03125 0
-0.5 0 0
-0.46875 0 0
-0.4375 0 0
-0.40625 0.03125 0
-0.375 0.03125 0
-0.40625 0 0
-0.375 0 0
-0.34375 0.09375 0
-0.3125 0.09375 0
-0.34375 0.0625 0
-0.3125 0.0625 0
-0.28125 0.09375 0
-0.25 0.09375 0
-0.28125 0.0625 0
-0.25 0.0625 0
-0.34375 0.03125 0
-0.3125 0.03125 0
-0.34375 0 0
-0.3125 0 0
-0.28125 0.03125 0
-0.25 0.03125 0
-0.28125 0 0
-0.25 0 0
-0.21875 0.21875 0
-0.1875 0.21875 0
-0.21875 0.1875 0
-0.1875 0.1875 0
-0.15625 0.21875 0
-0.125 0.21875 0
-0.15625 0.1875 0
-0.125 0.1875 0
-0.21875 0.15625 0
-0.1875 0.15625 0
-0.21875 0.125 0
-0.1875 0.125 0
-0.15625 0.15625 0
-0.125 0.15625 0
-0.15625 0.125 0
-0.125 0.125 0
-0.09375 0.21875 0
-0.0625 0.21875 0
-0.09375 0.1875 0
-0.0625 0.1875 0
-0.03125 0.21875 0
0 0.21875 0
-0.03125 0.1875 0
0 0.1875 0
-0.09375 0.15625 0
-0.0625 0.15625 0
-0.09375 0.125 0
-0.0625 0.125 0
-0.03125 0.15625 0
0 0.15625 0
-0.03125 0.125 0
0 0.125 0
-0.21875 0.09375 0
-0.1875 0.09375 0
-0.21875 0.0625 0
-0.1875 0.0625 0
-0.15625 0.09375 0
-0.125 0.09375 0
-0.15625 0.0625 0
-0.125 0.0625 0
-0.21875 0.03125 0
-0.1875 0.03125 0
-0.21875 0 0
-0.1875 0 0
-0.15625 0.03125 0
-0.125 0.03125 0
-0.15625 0 0
-0.125 0 0
-0.09375 0.09375 0
-0.0625 0.09375 0
-0.09375 0.0625 0
-0.0625 0.0625 0
-0.03125 0.09375 0
0 0.09375 0
-0.03125 0.0625 0
0 0.0625 0
-0.09375 0.03125 0
-0.0625 0.03125 0
-0.09375 0 0
-0.0625 0 0
-0.03125 0.03125 0
0 0.03125 0
-0.03125 0 0
0 0 0
0.03125 0.46875 0
0.03125 0.5 0
0.0625 0.46875 0
0.0625 0.5 0
0.03125 0.4375 0
0.0625 0.4375 0
0.09375 0.46875 0
0.09375 0.5 0
0.125 0.46875 0
0.125 0.5 0
0.09375 0.4375 0
0.125 0.4375 0
0.03125 0.40625 0
0.0625 0.40625 0
0.03125 0.375 0
0.0625 0.375 0
0.09375 0.40625 0
0.125 0.40625 0
0.09375 0.375 0
0.125 0.375 0
0.15625 0.46875 0
0.15625 0.5 0
0.1875 0.46875 0
0.1875 0.5 0
0.15625 0.4375 0
0.1875 0.4375 0
0.21875 0.46875 0
0.21875 0.5 0
0.25 0.46875 0
0.25 0.5 0
0.21875 0.4375 0
0.25 0.4375 0
0.15625 0.40625 0
0.1875 0.40625 0
0.15625 0.375 0
0.1875 0.375 0
0.21875 0.40625 0
0.25 0.40625 0
0.21875 0.375 0
0.25 0.375 0
0.03125 0.34375 0
0.0625 0.34375 0
0.03125 0.3125 0
0.0625 0.3125 0
0.09375 0.34375 0
0.125 0.34375 0
0.09375 0.3125 0
0.125 0.3125 0
0.03125 0.28125 0
0.0625 0.28125 0
0.03125 0.25 0
0.0625 0.25 0
0.09375 0.28125 0
0.125 0.28125 0
0.09375 0.25 0
0.125 0.25 0
0.15625 0.34375 0
0.1875 0.34375 0
0.15625 0.3125 0
0.1875 0.3125 0
0.21875 0.34375 0
0.25 0.34375 0
0.21875 0.3125 0
0.25 0.3125 0
0.15625 0.28125 0
0.1875 0.28125 0
0.15625 0.25 0
0.1875 0.25 0
0.21875 0.28125 0
0.25 0.28125 0
0.21875 0.25 0
0.25 0.25 0
0.28125 0.46875 0
0.28125 0.5 0
0.3125 0.46875 0
0.3125 0.5 0
0.28125 0.4375 0
0.3125 0.4375 0
0.34375 0.46875 0
0.34375 0.5 0
0.375 0.46875 0
0.375 0.5 0
0.34375 0.4375 0
0.375 0.4375 0
0.28125 0.40625 0
0.3125 0.40625 0
0.28125 0.375 0
0.3125 0.375 0
0.34375 0.40625 0
0.375 0.40625 0
0.34375 0.375 0
0.375 0.375 0
0.40625 0.46875 0
0.40625 0.5 0
0.4375 0.46875 0
0.4375 0.5 0
0.40625 0.4375 0
0.4375 0.4375 0
0.46875 0.46875 0
0.46875 0.5 0
0.5 0.46875 0
0.5 0.5 0
0.46875 0.4375 0
0.5 0.4375 0
0.40625 0.40625 0
0.4375 0.40625 0
0.40625 0.375 0
0.4375 0.375 0
0.46875 0.40625 0
0.5 0.40625 0
0.46875 0.375 0
0.5 0.375 0
0.28125 0.34375 0
0.3125 0.34375 0
0.28125 0.3125 0
0.3125 0.3125 0
0.34375 0.34375 0
0.375 0.34375 0
0.34375 0.3125 0
0.375 0.3125 0
0.28125 0.28125 0
0.3125 0.28125 0
0.28125 0.25 0
0.3125 0.25 0
0.34375 0.28125 0
0.375 0.28125 0
0.34375 0.25 0
0.375 0.25 0
0.40625 0.34375 0
0.4375 0.34375 0
0.40625 0.3125 0
0.4375 0.3125 0
0.46875 0.34375 0
0.5 0.34375 0
0.46875 0.3125 0
0.5 0.3125 0
0.40625 0.28125 0
0.4375 0.28125 0
0.40625 0.25 0
0.4375 0.25 0
0.46875 0.28125 0
0.5 0.28125 0
0.46875 0.25 0
0.5 0.25 0
0.03125 0.21875 0
0.0625 0.21875 0
0.03125 0.1875 0
0.0625 0.1875 0
0.09375 0.21875 0
0.125 0.21875 0
0.09375 0.1875 0
0.125 0.1875 0
0.03125 0.15625 0
0.0625 0.15625 0
0.03125 0.125 0
0.0625 0.125 0
0.09375 0.15625 0
0.125 0.15625 0
0.09375 0.125 0
0.125 0.125 0
0.15625 0.21875 0
0.1875 0.21875 0
0.15625 0.1875 0
0.1875 0.1875 0
0.21875 0.21875 0
0.25 0.21875 0
0.21875 0.1875 0
0.25 0.1875 0
0.15625 0.15625 0
0.1875 0.15625 0
0.15625 0.125 0
0.1875 0.125 0
0.21875 0.15625 0
0.25 0.15625 0
0.21875 0.125 0
0.25 0.125 0
0.03125 0.09375 0
0.0625 0.09375 0
0.03125 0.0625 0
0.0625 0.0625 0
0.09375 0.09375 0
0.125 0.09375 0
0.09375 0.0625 0
0.125 0.0625 0
0.03125 0.03125 0
0.0625 0.03125 0
0.03125 0 0
0.0625 0 0
0.09375 0.03125 0
0.125 0.03125 0
0.09375 0 0
0.125 0 0
0.15625 0.09375 0
0.1875 0.09375 0
0.15625 0.0625 0
0.1875 0.0625 0
0.21875 0.09375 0
0.25 0.09375 0
0.21875 0.0625 0
0.25 0.0625 0
0.15625 0.03125 0
0.1875 0.03125 0
0.15625 0 0
0.1875 0 0
0.21875 0.03125 0
0.25 0.03125 0
0.21875 0 0
0.25 0 0
0.28125 0.21875 0
0.3125 0.21875 0
0.28125 0.1875 0
0.3125 0.1875 0
0.34375 0.21875 0
0.375 0.21875 0
0.34375 0.1875 0
0.375 0.1875 0
0.28125 0.15625 0
0.3125 0.15625 0
0.28125 0.125 0
0.3125 0.125 0
0.34375 0.15625 0
0.375 0.15625 0
0.34375 0.125 0
0.375 0.125 0
0.40625 0.21875 0
0.4375 0.21875 0
0.40625 0.1875 0
0.4375 0.1875 0
0.46875 0.21875 0
0.5 0.21875 0
0.46875 0.1875 0
0.5 0.1875 0
0.40625 0.15625 0
0.4375 0.15625 0
0.40625 0.125 0
0.4375 0.125 0
0.46875 0.15625 0
0.5 0.15625 0
0.46875 0.125 0
0.5 0.125 0
0.28125 0.09375 0
0.3125 0.09375 0
0.28125 0.0625 0
0.3125 0.0625 0
0.34375 0.09375 0
0.375 0.09375 0
0.34375 0.0625 0
0.375 0.0625 0
0.28125 0.03125 0
0.3125 0.03125 0
0.28125 0 0
0.3125 0 0
0.34375 0.03125 0
0.375 0.03125 0
0.34375 0 0
0.375 0 0
0.40625 0.09375 0
0.4375 0.09375 0
0.40625 0.0625 0
0.4375 0.0625 0
0.46875 0.09375 0
0.5 0.09375 0
0.46875 0.0625 0
0.5 0.0625 0
0.40625 0.03125 0
0.4375 0.03125 0
0.40625 0 0
0.4375 0 0
0.46875 0.03125 0
0.5 0.03125 0
0.46875 0 0
0.5 0 0
-0.5 -0.03125 0
-0.46875 -0.03125 0
-0.4375 -0.03125 0
-0.5 -0.0625 0
-0.46875 -0.0625 0
-0.4375 -0.0625 0
-0.40625 -0.03125 0
-0.375 -0.03125 0
-0.40625 -0.0625 0
-0.375 -0.0625 0
-0.5 -0.09375 0
-0.46875 -0.09375 0
-0.4375 -0.09375 0
-0.5 -0.125 0
-0.46875 -0.125 0
-0.4375 -0.125 0
-0.40625 -0.09375 0
-0.375 -0.09375 0
-0.40625 -0.125 0
-0.375 -0.125 0
-0.34375 -0.03125 0
-0.3125 -0.03125 0
-0.34375 -0.0625 0
-0.3125 -0.0625 0
-0.28125 -0.03125 0
-0.25 -0.03125 0
-0.28125 -0.0625 0
-0.25 -0.0625 0
-0.34375 -0.09375 0
-0.3125 -0.09375 0
-0.34375 -0.125 0
-0.3125 -0.125 0
-0.28125 -0.09375 0
-0.25 -0.09375 0
-0.28125 -0.125 0
-0.25 -0.125 0
-0.5 -0.15625 0
-0.46875 -0.15625 0
-0.4375 -0.15625 0
-0.5 -0.1875 0
-0.46875 -0.1875 0
-0.4375 -0.1875 0
-0.40625 -0.15625 0
-0.375 -0.15625 0
[...]
POINT_DATA 1089
SCALARS T float
LOOKUP_TABLE default
0
0
0
0
0
0
0
0
0
0
0
0
0
0
0
0
0
0
0
0
0
0
0
0
0
0
0
0
0
0
0
0
0
0
0
0
0
0
0
0
0
0
0
0
0
0
0
0
0
0
0
0
0
0
0
0
0
0
0
0
0
0
0
0
0
0
0
0
0
0
0
0
0
0
0
0
0
0
0
0
0
0
0
0
0
0
0
0
0
0
0
0
0
0
0
0
0
0
0
0
0
0
0
0
0
0
0
0
0
0
0
0
0
0
0
0
0
0
0
0
0
0
0
0
0
0
0
0
0
0
0
0
0
0
0
0
0
0
0
0
0
0
0
0
0
0
0
0
0
0
0
0
0
0
0
0
0
0
0
0
0
0
0
0
0
0
0
0
0
0
0
0
0
0
0
0
0
0
0
0
0
0
0
0
0
0
0
0
0
0
0
0
0
0
0
0
0
0
0
0
0
0
0
0
0
0
0
0
0.000860368
0
0
0
0
0
0
0
0
0
0
0.0720333
0.23163
0
6.3478e-07
0.377868
0.461664
0
0
0
0
0
0
0
0
0
0
0
0
0
0
0
0
0
0
0
0
0
0
0
0
0
0
0
0
0
0
0
0
0
0
0
0
0
0
0
0
4.42932e-06
3.79454e-06
0.485558
0.449533
0
0
0.353606
0.198749
0
0
0
0
0
0
0
0
0
0
0.0533723
0
0
0
0
0
0
0
0
0
0
0
0
0
0
0
0
0
0
0
0
0
0
0
0
0
0
0
0
0
0
0
0
0
0
0
0
0
0
0
0
0
0
0
0
0
0
0
0
0
0
0
0
0
0
0
0.00140852
0.106865
0
0
0.294805
0.379453
0
0
0
0
0
0
0
0
0
0
0.3132
0.136386
0
0
0.0132906
0
0
0
0
0
0
0
0
0
0
0
0
0
0
0
0
0
0
0
0
0
0
0
0
0
0
0
0
0
0
0
0
0
0
0
0
0
0
0
0
0
0
0
0
0
0
0
0
0
0
0
0
0
0
0
0
0
0
0
0
0
0
0
0
0
0
0
0
0
0
0
0
0
0.106193
0.46165
0.288512
0.788513
0.794805
0.879453
1
1
0.345963
0.845963
0.210125
0.69968
1
1
0.989555
1
0.8132
0.543488
1
0.897447
0.170393
0
0.398461
0.00101331
1
0.96502
1
0.838757
0.466387
0.00136664
0.339111
0.000353327
0.0478892
0.324167
0
0.0367231
0.660345
0.791183
0.17079
0.291183
0
0
0
0
0
0
0
0
0.750521
0.460024
0.250521
0.0959416
0.116619
0
0.00253679
0
0
0
0
0
0
0
0
0
0
0
0
0
0
0
0
0
0
0
0
0
0
0
0
0
0
0
0
0
0
0
0
0
0
0
0
0
0
0
0
0
0
0
0
0
0
0
0
0
0
0
0
0
0
0
0
0
0
0
0
0
0
0
0
0
0
0
0
0
0
0
0
0
0
0
0
0
0
0.0719789
0.0393267
0.232434
0.353487
0.723755
0
0.00292289
0.296934
0
0.0212262
0.493259
0.786192
0.992181
0.972033
1
0.51428
0.73163
0.942247
1
0.877868
0.961664
1
1
1
1
1
1
1
1
1
1
0
0.018695
0.470937
0
0.000391721
0.244773
0.952242
1
0.708581
0.9642
0
0
0.0421396
0
0
0
0.266362
0.611279
0.010023
0.14708
1
1
1
1
1
1
1
1
0.879844
0.992787
0.405557
0.631386
1
1
0.787864
0.884471
0.985554
0.94953
1
1
0.853606
0.698521
1
0.999772
1
1
1
1
1
1
1
1
0.479991
0.209218
0.926618
0.690177
0.0323712
0
0.323952
0.060621
1
0.98096
1
1
0.752462
0.272379
0.960881
0.46636
1
1
1
1
1
1
1
1
1
1
0.924971
0.905751
1
0.998569
0.82244
0.672306
1
1
1
0.966259
0.945135
0.449881
0.702734
0.236619
0.908979
0.646257
0.45055
0.179998
0.277187
0.0413403
0.0195874
0
0
0
0
0
0
0
0
0
0
0
0
0
0
0
0
0
0
0
0
0
0.025713
0.138598
0
0
0.287864
0.384472
0
0
0
0
0
0
0
0
0
0
0
0
0
0
0
0
0
0
0
0
0
0
0
0
0
0
0
0
0
0
0
0
0
0
0
0
0
0
0
0
0
0
0
0
0
0
0.424971
0.405751
0
0
0.32244
0.173737
0
0
0
0
0
0
0
0
0
0
0.0415708
0
0
0
0
0
0
0
0
0
0
0
0
0
0
0
0
0
0
0
0
0
0
0
0
0
0
0
0
0
0
0
0
0
0
0
0
0
0
0
0
0
0
0
0
0
0
0
0
0
0
0.0243022
0.0131642
0.0727916
0.25013
0.535455
0.000876635
0.142452
0.0054787
0.223947
0.605116
0.962664
0.723947
1
0.0868113
0.0271839
0.554531
0.258805
0
0
0.0139011
0
0.96772
0.549556
0.997986
0.593681
0.0818354
0
0.0956949
0
0.00474657
0.114946
0.0001445
0.0091488
0.496663
0.804443
0.140865
0.304443
0
0
0
0
0
0
0
0
0.743674
0.348708
0.245688
0.0729609
0.0277606
0
0
0
0
0
0
0
0
0
0
0
0
0
0
0
0
0
0
0
0
0
0
0
0
0
0
0
0
0
0
0
0
0
0
0
0
0
0
0
0
0
0
0
0
0
0
0
0
0
0
0
0
0
0
0
0
0
0
0
0
0
0
0
0
0
0
0
0
0
0
0
0
0
0
0
0
0
0
0
0
0
0
0
0
0
0
0
0
0
0
0
0
0
0
0
0
0
0
0
0
0
0
0
0
0
0
0
0
0
0
0
0
0
0
0
0
0
0
0
0
0
0
0
0
0
0
0
0
0
0
0
0
0
0
0
0
0
0
0
0
0
0
0
0
0
0
0
0
0
0
0
0
0
0
0
0
0
0
0
0
0
0
0
0
0
0
0
0
0
0
0
0
0
0
0
0
0
0
0
0
0
0
0
0
0
0
0
0
0
0
0
0
0
0
0
0
0
0
0
0
0
0
0

SCALARS P float
LOOKUP_TABLE default
-0.00685949
-0.00647048
-0.00690487
-0.00647919
-0.00606438
-0.0060132
-0.00683803
-0.00648271
-0.00611648
-0.00566211
-0.005547
-0.00528529
-0.00510831
-0.00575671
-0.00542112
-0.00684769
-0.00651152
-0.00616803
-0.00688154
-0.00655113
-0.00621526
-0.00583252
-0.00552032
-0.00588833
-0.00558449
-0.00495582
-0.0047263
-0.00469332
-0.0044268
-0.00512738
-0.0048913
-0.00450801
-0.00421773
-0.00440701
-0.00410623
-0.00472324
-0.00463029
-0.00524671
-0.00502548
-0.00531799
-0.00510179
-0.004867
-0.0047787
-0.00494631
-0.00485941
-0.00693674
-0.00659944
-0.00625712
-0.00701093
-0.00665456
-0.00629208
-0.00592407
-0.00561434
-0.00593841
-0.00560857
-0.00710297
-0.0067158
-0.00631919
-0.00721596
-0.00678607
-0.00634
-0.00592972
-0.00556479
-0.00589721
-0.0054794
-0.00534224
-0.00512095
-0.005318
-0.0050811
-0.00496133
-0.00487193
-0.00490952
-0.0048127
-0.00524239
-0.00497924
-0.00510903
-0.00480649
-0.00478764
-0.00467773
-0.00458439
-0.00445351
-0.00439434
-0.00409686
-0.00446685
-0.00418335
-0.00461638
-0.00468028
-0.0046178
-0.00435707
-0.00483825
-0.00460782
-0.00481607
-0.00501616
-0.0047647
-0.00482522
-0.00484558
-0.00490622
-0.00495453
-0.0051463
-0.00503559
-0.00522872
-0.0051141
-0.00492304
-0.0054357
-0.005297
-0.00526503
-0.005552
-0.00577832
-0.00570206
-0.00612108
-0.00611152
-0.00585219
-0.00614558
-0.00538349
-0.00565519
-0.00546823
-0.00574271
-0.00593464
-0.00619778
-0.00602474
-0.006278
-0.00485781
-0.00492135
-0.00479656
-0.00486427
-0.00505729
-0.00526224
-0.00501238
-0.00523816
-0.00465648
-0.00472768
-0.00442247
-0.00449479
-0.00489188
-0.00514613
-0.00467659
-0.0049627
-0.00552152
-0.00582291
-0.00553425
-0.00588466
-0.00614663
-0.00643373
-0.00628892
-0.00665195
-0.00550066
-0.00593286
-0.00538762
-0.00591685
-0.00649014
-0.00703212
-0.00669734
-0.00765162
-0.00735449
-0.00686903
-0.00635562
-0.00753097
-0.00697635
-0.00637325
-0.00583886
-0.00534781
-0.00575457
-0.00516122
-0.00776633
-0.00712457
-0.00640192
-0.0080937
-0.00733929
-0.00645324
-0.005644
-0.00491044
-0.00549845
-0.00456576
-0.00491283
-0.00455949
-0.0046382
-0.00421871
-0.00429792
-0.00413869
-0.00390528
-0.00370772
-0.00427588
-0.00378276
-0.00378975
-0.00322355
-0.00341042
-0.00316846
-0.00279603
-0.00251392
-0.00855618
-0.00767517
-0.00657624
-0.00918886
-0.00816881
-0.00677509
-0.00533843
-0.00409613
-0.00510575
-0.00339531
-0.0101152
-0.00900135
-0.00724247
-0.0114156
-0.0103148
-0.00810089
-0.00487777
-0.00229452
-0.00457788
-0.000607803
-0.00313271
-0.00250852
-0.0022097
-0.00157717
-0.00202502
-0.00170825
-0.00107704
-0.000772367
-0.000790594
-0.000279405
0.00370868
0.00967912
0.000209279
0.000430793
0.0155496
0.0188752
-0.00409267
-0.00416217
-0.00363832
-0.00369385
-0.00436095
-0.00468439
-0.00389083
-0.0042152
-0.0030712
-0.00310796
-0.00238943
-0.00240983
-0.00329768
-0.0036175
-0.00260278
-0.00296409
-0.00518676
-0.00584202
-0.00469488
-0.005306
-0.00687784
-0.00838457
-0.00608549
-0.00726932
-0.00406566
-0.00461551
-0.00350016
-0.0042593
-0.00507828
-0.005637
-0.00511467
-0.0061008
-0.00155932
-0.00155061
-0.000608529
-0.000545403
-0.00171623
-0.00210386
-0.000612044
-0.000968982
0.000547569
0.000693854
0.0198893
0.018546
0.000865053
0.000623128
0.0150732
0.00932766
-0.0026934
-0.00368388
-0.00155752
-0.00279087
-0.00494716
-0.00631706
-0.0043861
-0.00581586
9.4749e-05
-0.00157866
0.00400277
-2.05865e-05
-0.00394853
-0.00582486
-0.00359924
-0.00628413
-0.00644392
-0.00650091
-0.00673735
-0.00685797
-0.00641176
-0.00664336
-0.00699851
-0.00717329
-0.00724598
-0.00745941
-0.00683915
-0.00703716
-0.00641758
-0.00658672
-0.00645981
-0.00655917
-0.00668704
-0.00679791
-0.00650255
-0.00645475
-0.00751172
-0.00773051
-0.00776086
-0.00796803
-0.00731229
-0.00759738
-0.00796475
-0.00815858
-0.00810497
-0.00828606
-0.00782957
-0.00798996
-0.00710772
-0.00748128
-0.00685029
-0.00741012
-0.00776448
-0.00795248
-0.00777577
-0.00799807
-0.00662457
-0.00668659
-0.00692611
-0.00703516
-0.00634581
-0.00590188
-0.00614649
-0.00483418
-0.00768935
-0.00818431
-0.0094044
0.0022697
-0.00630126
-0.00312172
0.0266956
0.0388944
-0.00645442
-0.00742857
-0.00580659
-0.00772236
-0.00791612
-0.00816332
-0.00834181
-0.008524
-0.00474712
-0.0084693
0.0303826
0.00558718
-0.00920828
-0.0091091
-0.0103227
-0.0103447
-0.00817692
-0.00835042
-0.0081813
-0.00834684
-0.00807356
-0.00808661
-0.00811365
-0.00827428
-0.00798114
-0.00813423
-0.00802243
-0.00789517
-0.00804957
-0.00806839
-0.00810899
-0.00812685
-0.00800263
-0.00787527
-0.0080517
-0.00791654
-0.00778366
-0.00792575
-0.00752687
-0.00765097
-0.00770476
-0.00746024
-0.00721573
-0.00731254
-0.00685949
-0.00693078
-0.00716789
-0.00683803
-0.00768552
-0.00744589
-0.00771965
-0.00747667
-0.00716299
-0.00684769
-0.00719366
-0.00688154
-0.00827592
-0.00827251
-0.00858623
-0.00851766
-0.00817337
-0.00801834
-0.00837061
-0.0081785
-0.00903499
-0.0088445
-0.00969553
-0.00924305
-0.00862756
-0.00838398
-0.00892689
-0.00862349
-0.00780473
-0.00754943
-0.00793745
-0.00766071
-0.00725668
-0.00693674
-0.00734911
-0.00701093
-0.00810941
-0.00780561
-0.00831588
-0.00798375
-0.00746853
-0.00710297
-0.00761698
-0.00721596
0.00185846
0.0450515
0.024701
0.0854173
0.0864279
0.0950803
0.112527
0.11105
0.0322356
0.0905461
0.0159154
0.0723411
0.110981
0.111135
0.107605
0.109059
0.087957
0.0532279
0.111187
0.0953732
0.00583897
-0.0122097
0.0331492
-0.0114214
0.110231
0.100647
0.108525
0.0846003
0.0416358
-0.00837946
0.0263852
-0.00870335
-0.00251778
0.0295311
-0.00731985
-0.00356767
0.0699611
0.0854789
0.0131548
0.0268275
-0.0072659
-0.00831187
-0.00791563
-0.00869375
-0.00865104
-0.0101951
-0.00941284
-0.011204
0.0788223
0.0400528
0.0173129
-0.00433869
-0.000662686
-0.0115027
-0.014214
-0.0129005
-0.0154814
-0.0166206
-0.0175236
-0.018496
-0.0140215
-0.0134244
-0.0147209
-0.0141942
-0.0104938
-0.00967619
-0.0100108
-0.00959291
-0.00923629
-0.00888327
-0.00932406
-0.00907648
-0.00871838
-0.00925685
-0.00932805
-0.00981535
-0.00936684
-0.00929811
-0.00989233
-0.00978833
-0.0085517
-0.00819586
-0.0087906
-0.00844086
-0.00779817
-0.00735449
-0.00802126
-0.00753097
-0.00908672
-0.00875321
-0.00955363
-0.00919466
-0.00831186
-0.00776633
-0.00871178
-0.0080937
-0.0110631
-0.0108794
-0.0121454
-0.0117316
-0.0106858
-0.0104511
-0.0114321
-0.0111509
-0.0128187
-0.0124222
-0.0133946
-0.0129832
-0.01213
-0.0118771
-0.0127337
-0.0125755
-0.0101585
-0.00976786
-0.0108496
-0.0104647
-0.00924716
-0.00855618
-0.00993771
-0.00918886
-0.0116294
-0.011315
-0.0124612
-0.0123098
-0.0108541
-0.0101152
-0.0120266
-0.0114156
-0.0133021
-0.0125402
-0.00996509
-0.0160301
-0.0165078
-0.00867569
-0.00276377
0.00936733
0.0135994
0.0326424
-0.01975
-0.0223957
0.00655389
-0.0225647
-0.024495
0.0243395
0.0458274
0.0516399
0.0671889
0.0570961
0.0210718
0.0294579
0.0396741
0.0418472
0.0353731
0.038765
0.0417313
0.0417103
0.0471566
0.0449942
0.0503252
0.0467136
0.0436486
0.0430778
0.0447172
0.0438491
-0.0222332
-0.0243423
0.0220621
-0.018754
-0.0211503
0.00313145
0.0647365
0.0566523
0.0394279
0.0484249
-0.0148168
-0.0147071
-0.00882109
-0.0122462
-0.011294
-0.00840277
0.00919453
0.0268877
-0.00290138
0.00626406
0.049972
0.0464748
0.0458162
0.0442282
0.0445221
0.0436919
0.0431112
0.0426663
0.0361987
0.0405322
0.0168175
0.0252936
0.0408815
0.0409738
0.0314148
0.0351449
0.0398198
0.0383069
0.0418009
0.0419002
0.0344736
0.0285088
0.0420739
0.0425674
0.0430516
0.0434774
0.0437623
0.0443379
0.0444424
0.0464804
0.0456495
0.0482525
0.0203823
0.00868886
0.0405922
0.0332929
-0.00213274
-0.00761836
0.0132638
-0.00758496
0.0496362
0.0551881
0.0525047
0.0605346
0.0457339
0.00541729
0.0687383
0.0214655
0.0436642
0.0442877
0.0428291
0.0434082
0.0455898
0.0480751
0.0443534
0.0460159
0.0414448
0.0419385
0.0371925
0.03681
0.0422549
0.042405
0.0334533
0.027132
0.0520751
0.0594156
0.048411
0.0513244
0.0653218
0.0185033
0.038706
0.000388334
0.0390711
0.0291511
0.0180028
0.00616069
0.00885136
-0.0103552
-0.0037228
-0.00932993
-0.0104423
-0.00930667
-0.00706705
-0.00922985
-0.00813667
-0.00640585
-0.00391152
-0.000618603
-0.00425085
-0.00202461
-0.00839384
-0.00742499
-0.0060895
-0.00784019
-0.0070133
-0.00597332
-0.00456434
-0.00304871
-0.00484155
-0.00372894
0.00201949
0.00641928
-0.000586316
-4.39118e-05
0.0122761
0.0158931
0.000524985
0.000699449
-0.00193189
-0.0013393
-0.00284449
-0.00229691
-0.00086138
-0.000656055
-0.00190473
-0.00172823
-0.00745252
-0.00675054
-0.00592365
-0.00719669
-0.00660403
-0.00593721
-0.00505385
-0.00421728
-0.00525016
-0.00459384
-0.00702523
-0.00651907
-0.00596806
-0.00693078
-0.00647919
-0.0060132
-0.0054096
-0.00488092
-0.005547
-0.00510831
-0.00352308
-0.00304441
-0.00403371
-0.00362212
-0.00271516
-0.00255737
-0.00334016
-0.00319948
-0.00442368
-0.00407368
-0.0047263
-0.0044268
-0.00383205
-0.00370689
-0.00421773
-0.00410623
0.0173017
0.0163237
0.000255123
-0.000385705
0.0128337
0.00675712
-0.000784847
-0.00115236
-0.000844317
-0.00126104
-0.00181097
-0.00207448
-0.00167262
-0.00213864
-0.00242206
-0.00287667
0.00125986
-0.00203325
-0.00172202
-0.00310687
-0.00503644
-0.00803503
-0.00515009
-0.00715294
-0.0027612
-0.00386084
-0.00345826
-0.00432676
-0.00528636
-0.0066822
-0.00537409
-0.00640094
-0.00259023
-0.0027783
-0.00320951
-0.00334941
-0.00307492
-0.00347641
-0.00359605
-0.0039408
-0.00370402
-0.00381212
-0.00409686
-0.00418335
-0.00401841
-0.004312
-0.00435707
-0.00460782
-0.00398447
-0.00466967
-0.00437612
-0.00492708
-0.00545815
-0.0062437
-0.00554336
-0.00616189
-0.00468189
-0.00513136
-0.00492304
-0.005297
-0.00562488
-0.0061235
-0.00570206
-0.00611152
-0.00931611
-0.00922888
-0.012014
-0.0055368
-0.00815649
-0.00230385
0.0310506
0.0776521
-0.0188996
0.00961179
-0.0257978
0.0178121
0.0898438
0.153703
0.110886
0.161186
-0.00735578
-0.0162702
0.0834587
0.030501
-0.0154808
-0.0148241
-0.0143148
-0.0148491
0.165262
0.0869652
0.167361
0.0932305
-0.00270242
-0.0124084
2.94309e-05
-0.0117357
-0.0273664
-0.00349324
-0.0230458
-0.0205539
0.0728429
0.132136
0.00678386
0.0416623
-0.0163055
-0.0170756
-0.0123886
-0.0135272
-0.0187687
-0.0153165
-0.0146969
-0.0125218
0.124471
0.0513777
0.0332209
0.00093272
-0.0117086
-0.0140843
-0.0137924
-0.0136628
-0.0142353
-0.0147674
-0.0122733
-0.0133974
-0.012332
-0.0128492
-0.012236
-0.012436
-0.0137792
-0.0134055
-0.0139536
-0.0136265
-0.0132563
-0.0132558
-0.0135991
-0.0138174
-0.0131056
-0.0133846
-0.012687
-0.0131115
-0.0137027
-0.0142269
-0.013645
-0.0143707
-0.0133504
-0.0134737
-0.0142038
-0.0147454
-0.0135415
-0.0133021
-0.0154044
-0.0160301
-0.0149565
-0.01602
-0.0153434
-0.0167898
-0.0175209
-0.01975
-0.0189495
-0.0225647
-0.0136339
-0.0134619
-0.0132236
-0.0132119
-0.0137351
-0.0143301
-0.013432
-0.013881
-0.012556
-0.0126437
-0.0121789
-0.0121501
-0.0128377
-0.013138
-0.0122321
-0.0123575
-0.0152408
-0.0166402
-0.0145614
-0.0155385
-0.0187343
-0.0222332
-0.0168731
-0.018754
-0.0135475
-0.0140306
-0.0125205
-0.0126428
-0.0145327
-0.0148168
-0.0126429
-0.0122462
-0.0101319
-0.0111833
-0.00866324
-0.00960245
-0.0120127
-0.0113199
-0.0102578
-0.0101493
-0.00781988
-0.00864539
-0.00728253
-0.00798574
-0.00921231
-0.00940282
-0.00849381
-0.00880937
-0.0113722
-0.0117886
-0.010392
-0.010794
-0.0112978
-0.0114945
-0.0107251
-0.0108604
-0.00968904
-0.00999406
-0.00912953
-0.00941976
-0.0100795
-0.0101897
-0.0095851
-0.00969538
-0.00694935
-0.00754937
-0.00673356
-0.00723926
-0.00801029
-0.00835916
-0.00765154
-0.00799412
-0.00659371
-0.00702009
-0.00650091
-0.00685797
-0.00738434
-0.00770217
-0.00717329
-0.00745941
-0.00866913
-0.00892831
-0.00829475
-0.00854462
-0.00910985
-0.00922196
-0.00873255
-0.00884847
-0.0079858
-0.00822471
-0.00773051
-0.00796803
-0.00841143
-0.00853169
-0.00815858
-0.00828606
-0.0114532
-0.01145
-0.0108881
-0.0108647
-0.0115031
-0.011525
-0.0108578
-0.0107894
-0.0102563
-0.0102417
-0.00976221
-0.00974057
-0.0102104
-0.0101011
-0.00967831
-0.00953637
-0.0115202
-0.0114094
-0.0106612
-0.0104097
-0.011119
-0.0104423
-0.00997653
-0.00922985
-0.00991121
-0.00959618
-0.00931016
-0.0089714
-0.0091152
-0.00839384
-0.00849393
-0.00784019
-0.00928828
-0.00927259
-0.00891002
-0.0088954
-0.0092013
-0.00905105
-0.00881761
-0.00866489
-0.00859309
-0.0085836
-0.00835042
-0.00834684
-0.00850737
-0.00836007
-0.00827428
-0.00813423
-0.00881676
-0.00848221
-0.00843341
-0.00811533
-0.0080326
-0.00745252
-0.00770408
-0.00719669
-0.00813938
-0.00784323
-0.00792575
-0.00765097
-0.00747059
-0.00702523
-0.00731254
-0.00690487

SCALARS U float
LOOKUP_TABLE default
0.0196663
0.0203358
0.0193151
0.0200888
0.0209799
0.0208978
0.0200649
0.0206112
0.0211109
0.021579
0.0216876
0.0221017
0.0224145
0.0215496
0.0219048
0.0205047
0.0209362
0.0213058
0.0210076
0.0213262
0.0215749
0.0216036
0.0218132
0.0217462
0.0218258
0.0225125
0.0230318
0.0227659
0.023458
0.0221515
0.0222646
0.0228083
0.0235774
0.0226391
0.0233686
0.0222219
0.0220353
0.0219167
0.0219003
0.021798
0.0216525
0.0217579
0.0215084
0.0213887
0.021029
0.0215887
0.021791
0.0219243
0.0222549
0.0223323
0.0223553
0.0219806
0.0219427
0.0223099
0.02217
0.0229916
0.0229375
0.0228608
0.0237583
0.0235763
0.0234226
0.0227355
0.0225197
0.0232542
0.0230057
0.0217912
0.0215121
0.0219052
0.0214893
0.021102
0.0205832
0.0209061
0.0201734
0.0221637
0.0216183
0.0226
0.0219498
0.0208392
0.0198319
0.02096
0.0196134
0.0223277
0.0229336
0.0219757
0.0224256
0.0217599
0.0214726
0.0216871
0.0219929
0.0215371
0.0217381
0.0212578
0.0211813
0.021202
0.0209073
0.0206254
0.0202491
0.0207067
0.0206694
0.0199928
0.0199398
0.0215653
0.0217034
0.0217443
0.0218411
0.0212929
0.0215812
0.0220159
0.0220668
0.0222646
0.0222624
0.0220147
0.0224746
0.0208689
0.0213164
0.0202006
0.0208234
0.0220259
0.0228747
0.0218942
0.023307
0.0200138
0.019474
0.0193574
0.0185519
0.0190734
0.0189143
0.0178829
0.0174657
0.0186763
0.0174872
0.0180137
0.016314
0.0164025
0.0155378
0.014665
0.0131682
0.019148
0.0198658
0.0174633
0.0179944
0.0212506
0.0233213
0.0193657
0.0220787
0.0149998
0.0149402
0.0117868
0.0107403
0.0157796
0.0192158
0.0103357
0.013642
0.0244843
0.0241975
0.0240097
0.025073
0.0247311
0.0245739
0.0238593
0.0236517
0.0245238
0.0244479
0.0254133
0.0250825
0.0250323
0.0254095
0.025136
0.0252131
0.0251701
0.0253093
0.025494
0.0256869
0.0232734
0.022577
0.0241931
0.0235334
0.0213746
0.0196121
0.022138
0.0198964
0.0252725
0.0247477
0.0256821
0.0252271
0.0231989
0.0204476
0.02365
0.0207167
0.0249636
0.0246809
0.0246965
0.0239628
0.023403
0.0227433
0.0246472
0.0240888
0.021057
0.0177808
0.0223827
0.0210801
0.0185962
0.0202739
0.0177229
0.0125212
0.0129739
0.00522522
0.00296483
-0.00507737
0.0233603
0.0226538
0.0146403
0.0132457
0.0213797
0.0194189
0.0134409
0.0150721
0.000805544
0.00119944
-0.00349921
0.00235897
0.00458593
0.0105556
0.00716043
0.0120396
0.0174442
0.0151083
0.017052
0.0139952
0.0128055
0.010637
0.0110438
0.00831782
0.0168748
0.0130987
0.0168841
0.0128992
0.00962798
0.00668684
0.00935634
0.00658678
0.00842858
0.00641375
0.00558173
0.00271915
0.00431312
0.00435137
-0.00149894
-0.00984699
0.0041053
0.00155504
0.00467696
0.00368439
-0.00267723
-0.0144424
0.0025876
-0.000774676
0.0170734
0.0145819
0.0176886
0.0200472
0.0120375
0.00971046
0.0207881
0.0195684
0.0181813
0.0254811
0.0169051
0.0216641
0.0304641
0.0322453
0.0266654
0.0318093
0.00814764
0.00763709
0.0174417
0.0147961
0.00839075
0.0127334
0.013176
0.0169742
0.0318199
0.0274896
0.0381846
0.0389653
0.0203223
0.0182385
0.0289405
0.020724
0.0223201
0.0222601
0.0219992
0.0218794
0.0227664
0.0226393
0.0210829
0.0209734
0.0196039
0.0195845
0.0216668
0.0198307
0.0236498
0.0239559
0.0249509
0.0261944
0.0229126
0.0203719
0.0251975
0.0214631
0.0179018
0.0179784
0.0164738
0.0165561
0.0176579
0.0159617
0.015633
0.0155783
0.0153099
0.015072
0.0152165
0.0151515
0.0172074
0.0148863
0.0164677
0.0129965
0.0142403
0.0145887
0.012599
0.0136921
0.0265294
0.0297365
0.0281572
0.0353852
0.0289982
0.0233233
0.0356278
0.0266776
0.0286277
0.0397204
0.0219247
0.029512
0.0406801
0.0292105
0.0296537
0.022547
0.0152781
0.00987316
0.0130521
0.0042915
0.0101758
0.0127596
0.00648027
0.0123057
0.0109218
-0.00160086
0.0105653
0.000731464
0.00231986
0.0126595
0.00360452
0.0150035
0.0153961
0.0149901
0.0157658
0.0152286
0.0155138
0.0161182
0.0162978
0.0156867
0.0169282
0.0162899
0.0168007
0.0175113
0.0153819
0.0163487
0.0151239
0.0165857
0.0172608
0.0180974
0.0177908
0.0187758
0.0176006
0.0169783
0.0182908
0.0177188
0.0181993
0.0188574
0.0189822
0.0184906
0.0196663
0.0192509
0.0194795
0.0200649
0.0188219
0.0194567
0.0195339
0.0201344
0.0200134
0.0205047
0.0206153
0.0210076
0.0150799
0.0170799
0.0159839
0.0183473
0.0185609
0.0196573