# vtk DataFile Version 2.0
Gerris simulation version 1.3.2 (131206-155120)
ASCII
DATASET UNSTRUCTURED_GRID

POINTS 1089 float
-0.5 0.46875 0
-0.46875 0.46875 0
-0.5 0.5 0
-0.46875 0.5 0
-0.4375 0.46875 0
-0.4375 0.5 0
-0.5 0.4375 0
-0.46875 0.4375 0
-0.4375 0.4375 0
-0.40625 0.46875 0
-0.40625 0.5 0
-0.375 0.46875 0
-0.375 0.5 0
-0.40625 0.4375 0
-0.375 0.4375 0
-0.5 0.40625 0
-0.46875 0.40625 0
-0.4375 0.40625 0
-0.5 0.375 0
-0.46875 0.375 0
-0.4375 0.375 0
-0.40625 0.40625 0
-0.375 0.40625 0
-0.40625 0.375 0
-0.375 0.375 0
-0.34375 0.46875 0
-0.34375 0.5 0
-0.3125 0.46875 0
-0.3125 0.5 0
-0.34375 0.4375 0
-0.3125 0.4375 0
-0.28125 0.46875 0
-0.28125 0.5 0
-0.25 0.46875 0
-0.25 0.5 0
-0.28125 0.4375 0
-0.25 0.4375 0
-0.34375 0.40625 0
-0.3125 0.40625 0
-0.34375 0.375 0
-0.3125 0.375 0
-0.28125 0.40625 0
-0.25 0.40625 0
-0.28125 0.375 0
-0.25 0.375 0
-0.5 0.34375 0
-0.46875 0.34375 0
-0.4375 0.34375 0
-0.5 0.3125 0
-0.46875 0.3125 0
-0.4375 0.3125 0
-0.40625 0.34375 0
-0.375 0.34375 0
-0.40625 0.3125 0
-0.375 0.3125 0
-0.5 0.28125 0
-0.46875 0.28125 0
-0.4375 0.28125 0
-0.5 0.25 0
-0.46875 0.25 0
-0.4375 0.25 0
-0.40625 0.28125 0
-0.375 0.28125 0
-0.40625 0.25 0
-0.375 0.25 0
-0.34375 0.34375 0
-0.3125 0.34375 0
-0.34375 0.3125 0
-0.3125 0.3125 0
-0.28125 0.34375 0
-0.25 0.34375 0
-0.28125 0.3125 0
-0.25 0.3125 0
-0.34375 0.28125 0
-0.3125 0.28125 0
-0.34375 0.25 0
-0.3125 0.25 0
-0.28125 0.28125 0
-0.25 0.28125 0
-0.28125 0.25 0
-0.25 0.25 0
-0.21875 0.46875 0
-0.21875 0.5 0
-0.1875 0.46875 0
-0.1875 0.5 0
-0.21875 0.4375 0
-0.1875 0.4375 0
-0.15625 0.46875 0
-0.15625 0.5 0
-0.125 0.46875 0
-0.125 0.5 0
-0.15625 0.4375 0
-0.125 0.4375 0
-0.21875 0.40625 0
-0.1875 0.40625 0
-0.21875 0.375 0
-0.1875 0.375 0
-0.15625 0.40625 0
-0.125 0.40625 0
-0.15625 0.375 0
-0.125 0.375 0
-0.09375 0.46875 0
-0.09375 0.5 0
-0.0625 0.46875 0
-0.0625 0.5 0
-0.09375 0.4375 0
-0.0625 0.4375 0
-0.03125 0.46875 0
-0.03125 0.5 0
0 0.46875 0
0 0.5 0
-0.03125 0.4375 0
0 0.4375 0
-0.09375 0.40625 0
-0.0625 0.40625 0
-0.09375 0.375 0
-0.0625 0.375 0
-0.03125 0.40625 0
0 0.40625 0
-0.03125 0.375 0
0 0.375 0
-0.21875 0.34375 0
-0.1875 0.34375 0
-0.21875 0.3125 0
-0.1875 0.3125 0
-0.15625 0.34375 0
-0.125 0.34375 0
-0.15625 0.3125 0
-0.125 0.3125 0
-0.21875 0.28125 0
-0.1875 0.28125 0
-0.21875 0.25 0
-0.1875 0.25 0
-0.15625 0.28125 0
-0.125 0.28125 0
-0.15625 0.25 0
-0.125 0.25 0
-0.09375 0.34375 0
-0.0625 0.34375 0
-0.09375 0.3125 0
-0.0625 0.3125 0
-0.03125 0.34375 0
0 0.34375 0
-0.03125 0.3125 0
0 0.3125 0
-0.09375 0.28125 0
-0.0625 0.28125 0
-0.09375 0.25 0
-0.0625 0.25 0
-0.03125 0.28125 0
0 0.28125 0
-0.03125 0.25 0
0 0.25 0
-0.5 0.21875 0
-0.46875 0.21875 0
-0.4375 0.21875 0
-0.5 0.1875 0
-0.46875 0.1875 0
-0.4375 0.1875 0
-0.40625 0.21875 0
-0.375 0.21875 0
-0.40625 0.1875 0
-0.375 0.1875 0
-0.5 0.15625 0
-0.46875 0.15625 0
-0.4375 0.15625 0
-0.5 0.125 0
-0.46875 0.125 0
-0.4375 0.125 0
-0.40625 0.15625 0
-0.375 0.15625 0
-0.40625 0.125 0
-0.375 0.125 0
-0.34375 0.21875 0
-0.3125 0.21875 0
-0.34375 0.1875 0
-0.3125 0.1875 0
-0.28125 0.21875 0
-0.25 0.21875 0
-0.28125 0.1875 0
-0.25 0.1875 0
-0.34375 0.15625 0
-0.3125 0.15625 0
-0.34375 0.125 0
-0.3125 0.125 0
-0.28125 0.15625 0
-0.25 0.15625 0
-0.28125 0.125 0
-0.25 0.125 0
-0.5 0.09375 0
-0.46875 0.09375 0
-0.4375 0.09375 0
-0.5 0.0625 0
-0.46875 0.0625 0
-0.4375 0.0625 0
-0.40625 0.09375 0
-0.375 0.09375 0
-0.40625 0.0625 0
-0.375 0.0625 0
-0.5 0.03125 0
-0.46875 0.03125 0
-0.4375 0.03125 0
-0.5 0 0
-0.46875 0 0
-0.4375 0 0
-0.40625 0.03125 0
-0.375 0.03125 0
-0.40625 0 0
-0.375 0 0
-0.34375 0.09375 0
-0.3125 0.09375 0
-0.34375 0.0625 0
-0.3125 0.0625 0
-0.28125 0.09375 0
-0.25 0.09375 0
-0.28125 0.0625 0
-0.25 0.0625 0
-0.34375 0.03125 0
-0.3125 0.03125 0
-0.34375 0 0
-0.3125 0 0
-0.28125 0.03125 0
-0.25 0.03125 0
-0.28125 0 0
-0.25 0 0
-0.21875 0.21875 0
-0.1875 0.21875 0
-0.21875 0.1875 0
-0.1875 0.1875 0
-0.15625 0.21875 0
-0.125 0.21875 0
-0.15625 0.1875 0
-0.125 0.1875 0
-0.21875 0.15625 0
-0.1875 0.15625 0
-0.21875 0.125 0
-0.1875 0.125 0
-0.15625 0.15625 0
-0.125 0.15625 0
-0.15625 0.125 0
-0.125 0.125 0
-0.09375 0.21875 0
-0.0625 0.21875 0
-0.09375 0.1875 0
-0.0625 0.1875 0
-0.03125 0.21875 0
0 0.21875 0
-0.03125 0.1875 0
0 0.1875 0
-0.09375 0.15625 0
-0.0625 0.15625 0
-0.09375 0.125 0
-0.0625 0.125 0
-0.03125 0.15625 0
0 0.15625 0
-0.03125 0.125 0
0 0.125 0
-0.21875 0.09375 0
-0.1875 0.09375 0
-0.21875 0.0625 0
-0.1875 0.0625 0
-0.15625 0.09375 0
-0.125 0.09375 0
-0.15625 0.0625 0
-0.125 0.0625 0
-0.21875 0.03125 0
-0.1875 0.03125 0
-0.21875 0 0
-0.1875 0 0
-0.15625 0.03125 0
-0.125 0.03125 0
-0.15625 0 0
-0.125 0 0
-0.09375 0.09375 0
-0.0625 0.09375 0
-0.09375 0.0625 0
-0.0625 0.0625 0
-0.03125 0.09375 0
0 0.09375 0
-0.03125 0.0625 0
0 0.0625 0
-0.09375 0.03125 0
-0.0625 0.03125 0
-0.09375 0 0
-0.0625 0 0
-0.03125 0.03125 0
0 0.03125 0
-0.03125 0 0
0 0 0
0.03125 0.46875 0
0.03125 0.5 0
0.0625 0.46875 0
0.0625 0.5 0
0.03125 0.4375 0
0.0625 0.4375 0
0.09375 0.46875 0
0.09375 0.5 0
0.125 0.46875 0
0.125 0.5 0
0.09375 0.4375 0
0.125 0.4375 0
0.03125 0.40625 0
0.0625 0.40625 0
0.03125 0.375 0
0.0625 0.375 0
0.09375 0.40625 0
0.125 0.40625 0
0.09375 0.375 0
0.125 0.375 0
0.15625 0.46875 0
0.15625 0.5 0
0.1875 0.46875 0
0.1875 0.5 0
0.15625 0.4375 0
0.1875 0.4375 0
0.21875 0.46875 0
0.21875 0.5 0
0.25 0.46875 0
0.25 0.5 0
0.21875 0.4375 0
0.25 0.4375 0
0.15625 0.40625 0
0.1875 0.40625 0
0.15625 0.375 0
0.1875 0.375 0
0.21875 0.40625 0
0.25 0.40625 0
0.21875 0.375 0
0.25 0.375 0
0.03125 0.34375 0
0.0625 0.34375 0
0.03125 0.3125 0
0.0625 0.3125 0
0.09375 0.34375 0
0.125 0.34375 0
0.09375 0.3125 0
0.125 0.3125 0
0.03125 0.28125 0
0.0625 0.28125 0
0.03125 0.25 0
0.0625 0.25 0
0.09375 0.28125 0
0.125 0.28125 0
0.09375 0.25 0
0.125 0.25 0
0.15625 0.34375 0
0.1875 0.34375 0
0.15625 0.3125 0
0.1875 0.3125 0
0.21875 0.34375 0
0.25 0.34375 0
0.21875 0.3125 0
0.25 0.3125 0
0.15625 0.28125 0
0.1875 0.28125 0
0.15625 0.25 0
0.1875 0.25 0
0.21875 0.28125 0
0.25 0.28125 0
0.21875 0.25 0
0.25 0.25 0
0.28125 0.46875 0
0.28125 0.5 0
0.3125 0.46875 0
0.3125 0.5 0
0.28125 0.4375 0
0.3125 0.4375 0
0.34375 0.46875 0
0.34375 0.5 0
0.375 0.46875 0
0.375 0.5 0
0.34375 0.4375 0
0.375 0.4375 0
0.28125 0.40625 0
0.3125 0.40625 0
0.28125 0.375 0
0.3125 0.375 0
0.34375 0.40625 0
0.375 0.40625 0
0.34375 0.375 0
0.375 0.375 0
0.40625 0.46875 0
0.40625 0.5 0
0.4375 0.46875 0
0.4375 0.5 0
0.40625 0.4375 0
0.4375 0.4375 0
0.46875 0.46875 0
0.46875 0.5 0
0.5 0.46875 0
0.5 0.5 0
0.46875 0.4375 0
0.5 0.4375 0
0.40625 0.40625 0
0.4375 0.40625 0
0.40625 0.375 0
0.4375 0.375 0
0.46875 0.40625 0
0.5 0.40625 0
0.46875 0.375 0
0.5 0.375 0
0.28125 0.34375 0
0.3125 0.34375 0
0.28125 0.3125 0
0.3125 0.3125 0
0.34375 0.34375 0
0.375 0.34375 0
0.34375 0.3125 0
0.375 0.3125 0
0.28125 0.28125 0
0.3125 0.28125 0
0.28125 0.25 0
0.3125 0.25 0
0.34375 0.28125 0
0.375 0.28125 0
0.34375 0.25 0
0.375 0.25 0
0.40625 0.34375 0
0.4375 0.34375 0
0.40625 0.3125 0
0.4375 0.3125 0
0.46875 0.34375 0
0.5 0.34375 0
0.46875 0.3125 0
0.5 0.3125 0
0.40625 0.28125 0
0.4375 0.28125 0
0.40625 0.25 0
0.4375 0.25 0
0.46875 0.28125 0
0.5 0.28125 0
0.46875 0.25 0
0.5 0.25 0
0.03125 0.21875 0
0.0625 0.21875 0
0.03125 0.1875 0
0.0625 0.1875 0
0.09375 0.21875 0
0.125 0.21875 0
0.09375 0.1875 0
0.125 0.1875 0
0.03125 0.15625 0
0.0625 0.15625 0
0.03125 0.125 0
0.0625 0.125 0
0.09375 0.15625 0
0.125 0.15625 0
0.09375 0.125 0
0.125 0.125 0
0.15625 0.21875 0
0.1875 0.21875 0
0.15625 0.1875 0
0.1875 0.1875 0
0.21875 0.21875 0
0.25 0.21875 0
0.21875 0.1875 0
0.25 0.1875 0
0.15625 0.15625 0
0.1875 0.15625 0
0.15625 0.125 0
0.1875 0.125 0
0.21875 0.15625 0
0.25 0.15625 0
0.21875 0.125 0
0.25 0.125 0
0.03125 0.09375 0
0.0625 0.09375 0
0.03125 0.0625 0
0.0625 0.0625 0
0.09375 0.09375 0
0.125 0.09375 0
0.09375 0.0625 0
0.125 0.0625 0
0.03125 0.03125 0
0.0625 0.03125 0
0.03125 0 0
0.0625 0 0
0.09375 0.03125 0
0.125 0.03125 0
0.09375 0 0
0.125 0 0
0.15625 0.09375 0
0.1875 0.09375 0
0.15625 0.0625 0
0.1875 0.0625 0
0.21875 0.09375 0
0.25 0.09375 0
0.21875 0.0625 0
0.25 0.0625 0
0.15625 0.03125 0
0.1875 0.03125 0
0.15625 0 0
0.1875 0 0
0.21875 0.03125 0
0.25 0.03125 0
0.21875 0 0
0.25 0 0
0.28125 0.21875 0
0.3125 0.21875 0
0.28125 0.1875 0
0.3125 0.1875 0
0.34375 0.21875 0
0.375 0.21875 0
0.34375 0.1875 0
0.375 0.1875 0
0.28125 0.15625 0
0.3125 0.15625 0
0.28125 0.125 0
0.3125 0.125 0
0.34375 0.15625 0
0.375 0.15625 0
0.34375 0.125 0
0.375 0.125 0
0.40625 0.21875 0
0.4375 0.21875 0
0.40625 0.1875 0
0.4375 0.1875 0
0.46875 0.21875 0
0.5 0.21875 0
0.46875 0.1875 0
0.5 0.1875 0
0.40625 0.15625 0
0.4375 0.15625 0
0.40625 0.125 0
0.4375 0.125 0
0.46875 0.15625 0
0.5 0.15625 0
0.46875 0.125 0
0.5 0.125 0
0.28125 0.09375 0
0.3125 0.09375 0
0.28125 0.0625 0
0.3125 0.0625 0
0.34375 0.09375 0
0.375 0.09375 0
0.34375 0.0625 0
0.375 0.0625 0
0.28125 0.03125 0
0.3125 0.03125 0
0.28125 0 0
0.3125 0 0
0.34375 0.03125 0
0.375 0.03125 0
0.34375 0 0
0.375 0 0
0.40625 0.09375 0
0.4375 0.09375 0
0.40625 0.0625 0
0.4375 0.0625 0
0.46875 0.09375 0
0.5 0.09375 0
0.46875 0.0625 0
0.5 0.0625 0
0.40625 0.03125 0
0.4375 0.03125 0
0.40625 0 0
0.4375 0 0
0.46875 0.03125 0
0.5 0.03125 0
0.46875 0 0
0.5 0 0
-0.5 -0.03125 0
-0.46875 -0.03125 0
-0.4375 -0.03125 0
-0.5 -0.0625 0
-0.46875 -0.0625 0
-0.4375 -0.0625 0
-0.40625 -0.03125 0
-0.375 -0.03125 0
-0.40625 -0.0625 0
-0.375 -0.0625 0
-0.5 -0.09375 0
-0.46875 -0.09375 0
-0.4375 -0.09375 0
-0.5 -0.125 0
-0.46875 -0.125 0
-0.4375 -0.125 0
-0.40625 -0.09375 0
-0.375 -0.09375 0
-0.40625 -0.125 0
-0.375 -0.125 0
-0.34375 -0.03125 0
-0.3125 -0.03125 0
-0.34375 -0.0625 0
-0.3125 -0.0625 0
-0.28125 -0.03125 0
-0.25 -0.03125 0
-0.28125 -0.0625 0
-0.25 -0.0625 0
-0.34375 -0.09375 0
-0.3125 -0.09375 0
-0.34375 -0.125 0
-0.3125 -0.125 0
-0.28125 -0.09375 0
-0.25 -0.09375 0
-0.28125 -0.125 0
-0.25 -0.125 0
-0.5 -0.15625 0
-0.46875 -0.15625 0
-0.4375 -0.15625 0
-0.5 -0.1875 0
-0.46875 -0.1875 0
-0.4375 -0.1875 0
-0.40625 -0.15625 0
-0.375 -0.15625 0
[...]
POINT_DATA 1089
SCALARS T float
LOOKUP_TABLE default
0
0
0
0
0
0
0
0
0
0
0
0
0
0
0
0
0
0
0
0
0
0
0
0
0
0
0
0
0
0
0
0
0
0
0
0
0
0
0
0
0
0
0
0
0
0
0
0
0
0
0
0
0
0
0
0
0
0
0
0
0
0
0
0
0
0
0
0
0
0
0
0
0
0
0
0
0
0
0
0
0
0
0
0
0
0
0
0
0
0
0
0
0
0
0
0
0
0
0
0
0
0
0
0
0
0
0
0
0
0
0
0
0
0
0
0
0
0
0
0
0
0
0
0
0
0
0
0
0
0
0
0
0
0
0
0
0
0
0
0
0
0
0
0
0
0
0
0
0
0
0
0
0
0
0
0
0
0
0
0
0
0
0
0
0
0
0
0
0
0
0
0
0
0
0
0
0
0
0
0
0
0
0
0
0
0
0
0
0
0
0
0
0
0
0
0
0
0
0
0
0
0
0
0
0
0
0
0
0
0
0
0
0
0
0
0.00468957
0.0981643
0
0.0309357
0.013253
0.252073
0.24115
0.553689
0.694345
0.955524
0
0
0
0
0
0
0
0
0
0
0
0
0
0
0
0
0
0
0
0
0
0
0
0
0
0
0
0
0
0
0
0
0
0
0.259405
0.352248
0
0
0.343346
0.233175
0.759405
0.852248
1
1
0.843346
0.733175
1
1
0
0
0.0781253
0.00197795
0
0
0
0
0.511521
0.20437
0.933396
0.641362
0.0189961
0
0.21189
0.0039231
0
0
0
0
0
0
0
0
0
0
0
0
0
0
0
0
0
0
0
0
0
0
0
0
0
0
0
0
0
0
0
0
0
0
0
0
0
0
0
0
0
0
0
0
0
0
0
4.38589e-05
0
0
0
0
0.0167551
0.189983
0.172805
0.59599
0
0
0.00143303
0.00239453
0
0
0.00100536
0
0.42182
0.465972
0.920387
0.963578
0.2956
0.0782198
0.781008
0.344661
0
0
0
0
0
0
0
0
0
0
0
0
0
0
0
0
0
0
0
0
0
0
0
0
0
0
0
0
0
0
0
0
0
0
0
0
0
0
0
0
0
0
0
0
0
0
0
0
0
0
0.0300277
0
0
0
0
0
0
0
0
0
0
0
0
0
0
0
0
0
0
0
0
0
0
0
0
0
0.388102
0.888102
0.453342
0.953342
0
0
0
0
0.341179
0.841179
0.124495
0.489633
1
1
1
1
0.986413
0.618401
1
0.705116
1
1
0.816438
0.886587
0.989219
0.620271
0.739112
0.33172
0
0
0
0
0.00460659
0.119745
0
0
0
0
0
0
0
0
0
0
0.316438
0.386587
0
0
0.249893
0.0646057
0
0
0
0
0
0
0
0
0
0
0.131988
0
0.205116
0
0
0
0
0
0.131051
0
0.0278952
0
0
0
0
0
0
0
0
0
0
0
0
0
0
0
0
0
0
0
0
0
0
0
0
0
0
0
0
0
0
0
0
0
0
0
0
0
0
0
0
0
0
0
0
0
0
0
0
0
0
0
0
0
0
0
0
0
0
0
0
0
0
0
0
0
0
0
0
0
0
0.000534578
0
0.000842608
0.131291
0.589176
0.324641
0.824641
0.957885
1
1
1
0.452531
0.951997
0.485622
0.984779
1
1
1
1
0
0
0
0
0
0
0
0.00030803
0
0
0
0
0
0
0
0
0
0
0
0
0.427339
0.927031
0.272685
0.772685
1
1
1
1
0.0867422
0.503085
0.00170373
0.174076
0.916343
1
0.55867
0.880536
1
1
1
1
1
1
1
1
1
1
1
1
1
1
1
1
1
0.938971
1
1
0.533751
0.0947801
0.765841
0.265841
1
1
1
1
0.882929
0.382929
0.902819
0.402819
1
1
1
1
1
1
1
1
1
1
0.994238
1
1
1
1
0.972725
1
1
1
0.991946
0.830372
0.330372
0.659564
0.167618
0.999156
0.8379
0.803841
0.427914
0.370864
0.0321205
0.0967974
0
0
0
0
0
0
0
0
0
0
0
0
0
0
0
0
0
0
0
0
0
0
0.00602888
0
0
0.142327
0.399709
0
0.0191737
0
0
0
0
0
0
0
0
0
0
0
0
0
0
0
0
0
0
0
0
0
0
0
0
0
0
0
0
0
0
0
0
0
0
0
0
0
0
0
0
0
0
0
0
0.592813
0.674458
0.0985754
0.174458
0.657614
0.541025
0.157614
0.0683005
0
0
0
0
0
0
0
0
0.310427
0.0819602
0.00574204
0
0
0
0
0
0
0
0
0
0
0
0
0
0
0
0
0
0
0
0
0
0
0
0
0
0
0
0
0
0
0
0
0
0
0
0
0
0
0
0
0
0
0
0
0
0
0
0
0
0
0
0
0
0
0
0
0
0
0.0886389
0
0.249044
0
0.092427
0.0485464
0.218465
0.103353
0.0109256
0.181
0.011081
0.386994
0.625847
0.748852
0.999809
0.450265
0.122773
0.872618
0.406155
0
0
0
0
0
0.225321
0
0.064916
0
0
0
0
0
0
0
0
0.721613
0.996292
0.36431
0.710828
0.995268
0.560379
0.745388
0.365528
0.0531021
0.214536
0
0
0.25012
0.0886861
0
0
0
0
0
0
0
0
0
0
0
0
0.0335374
0
0
0
0
0
0
0
0
0
0
0
0
0
0
0
0
0
0
0
0
0
0.0651112
0
0.0315738
0
0
0
0
0
0
0
0
0
0
0
0
0
0
0
0
0
0
0
0
0
0
0
0
0
0
0
0
0
0
0
0
0
0
0
0
0
0
0
0
0
0
0
0
0
0
0
0
0
0
0
0
0
0
0
0
0
0
0
0
0
0
0
0
0
0
0
0
0
0
0
0
0
0
0
0
0
0
0
0
0
0
0
0
0
0
0
0
0
0
0
0
0
0
0
0
0
0
0
0
0
0
0
0
0
0
0
0
0
0
0
0
0
0
0
0
0
0
0
0
0
0
0
0
0
0
0
0
0
0
0
0
0
0
0
0
0
0
0
0
0
0
0
0
0
0
0
0
0
0
0
0
0
0
0
0
0

SCALARS P float
LOOKUP_TABLE default
-0.00600189
-0.00605953
-0.00603609
-0.0061013
-0.00614206
-0.00619604
-0.00595966
-0.00601293
-0.00608968
-0.00624115
-0.00630957
-0.00635187
-0.00643748
-0.00618128
-0.00628274
-0.00590208
-0.00595744
-0.00603458
-0.0058279
-0.00589233
-0.00597627
-0.00612496
-0.00622361
-0.00607153
-0.00617328
-0.00647064
-0.00657696
-0.00659344
-0.00672282
-0.00639007
-0.00649961
-0.00671652
-0.00686973
-0.0068337
-0.00700686
-0.00660809
-0.00671175
-0.0063263
-0.00642948
-0.00627718
-0.0063799
-0.00653014
-0.00662561
-0.00647854
-0.00657075
-0.00573714
-0.00581814
-0.00591546
-0.00563145
-0.0057363
-0.00585337
-0.00602157
-0.00613217
-0.00597613
-0.00610146
-0.00551511
-0.00565008
-0.00579264
-0.00539453
-0.00556404
-0.00573722
-0.00593802
-0.00608506
-0.00591158
-0.00608847
-0.006243
-0.00635116
-0.00622569
-0.00634638
-0.00645369
-0.00654768
-0.0064602
-0.00656255
-0.00623093
-0.00637328
-0.00626613
-0.0064414
-0.00650789
-0.00662684
-0.00660972
-0.00675844
-0.00694215
-0.00713029
-0.00703873
-0.00723671
-0.0068085
-0.00689614
-0.00712062
-0.00732106
-0.00718675
-0.00738227
-0.00697315
-0.00703952
-0.00671416
-0.00679416
-0.00665449
-0.00672789
-0.00686486
-0.00692726
-0.00679028
-0.00684374
-0.00723837
-0.00742143
-0.00727883
-0.00744089
-0.00709734
-0.00715171
-0.00731234
-0.00744343
-0.00734557
-0.00743714
-0.0072087
-0.00727529
-0.00698485
-0.00704491
-0.00689336
-0.00694871
-0.00711674
-0.00720894
-0.00702341
-0.00712884
-0.00663001
-0.00669762
-0.00664797
-0.00671134
-0.00674951
-0.00678825
-0.00675044
-0.00676731
-0.00672128
-0.00678302
-0.00687239
-0.0069376
-0.00680724
-0.00679407
-0.00694397
-0.00688965
-0.00681978
-0.00685498
-0.00676755
-0.00676208
-0.00691205
-0.00700491
-0.0067723
-0.00681258
-0.00674716
-0.00667509
-0.00677609
-0.0066067
-0.00659565
-0.00651596
-0.00638158
-0.00608405
-0.00528073
-0.00548546
-0.00569287
-0.00518374
-0.00541967
-0.0056625
-0.00590269
-0.00611843
-0.00591267
-0.00617485
-0.00510546
-0.00536811
-0.00564595
-0.00503732
-0.00532333
-0.00563365
-0.00593964
-0.00625273
-0.00596935
-0.00633026
-0.0063399
-0.00656213
-0.00645292
-0.00673969
-0.00678333
-0.00698115
-0.00704053
-0.00731407
-0.0065989
-0.00696394
-0.0067518
-0.00720546
-0.00736956
-0.00773783
-0.00774385
-0.00823085
-0.00496758
-0.00527685
-0.00561463
-0.00489288
-0.00522802
-0.00559322
-0.00598381
-0.00638025
-0.00599975
-0.0064494
-0.00481243
-0.00516921
-0.00554842
-0.00475604
-0.00512513
-0.0055125
-0.00596136
-0.0064224
-0.00591443
-0.0063936
-0.00688141
-0.00743768
-0.00708862
-0.00781934
-0.00820514
-0.00889481
-0.00855488
-0.00321897
-0.00708302
-0.00612621
-0.0063139
0.00625063
0.00523716
0.0238945
0.0314003
0.0474312
-0.00712791
-0.00720409
-0.00751145
-0.00760483
-0.0071913
-0.00708681
-0.00756168
-0.00739021
-0.00798227
-0.00809316
-0.00853738
-0.00868717
-0.00802482
-0.00779184
-0.00856725
-0.00822404
-0.00689337
-0.00661208
-0.00711086
-0.00673037
-0.00621625
-0.00567111
-0.00620325
-0.0055037
-0.00743945
-0.00698818
-0.00780167
-0.00733642
-0.00639875
-0.00565461
-0.00677798
-0.00610333
-0.00924259
-0.00942938
0.0071272
0.0129761
-0.00928897
-0.00885176
0.0121511
0.00506837
0.037508
0.0437206
0.0510157
0.0514919
0.0425736
0.0346114
0.0510054
0.0498007
-0.00834377
-0.00785564
-0.00424886
-0.00843422
-0.00732683
-0.00671615
-0.00804662
-0.00742111
0.020505
0.00249134
0.0446898
0.0270116
-0.00781687
-0.00827143
0.00224626
-0.0089793
-0.00738184
-0.00742412
-0.00741711
-0.0074017
-0.00735818
-0.00745152
-0.00744841
-0.00737235
-0.00745233
-0.00731491
-0.00755276
-0.00763233
-0.00733593
-0.00749199
-0.00729522
-0.00752238
-0.00768527
-0.00787968
-0.00784502
-0.00822757
-0.00741295
-0.00723838
-0.00729934
-0.00712425
-0.00764466
-0.0075303
-0.00711064
-0.00696173
-0.00687434
-0.00676297
-0.00729667
-0.00699399
-0.00798194
-0.00786499
-0.00848172
-0.00833634
-0.0075445
-0.00711951
-0.0078487
-0.00721638
-0.00718927
-0.00747447
-0.00697306
-0.00727827
-0.00796057
-0.00867672
-0.00799262
-0.0093011
-0.00654768
-0.00670388
-0.00577763
-0.00541229
-0.00549153
0.0147685
0.0141997
0.064795
-0.00925703
-0.00906219
-0.010269
-0.00984479
-0.00823623
-0.0072349
-0.00862947
-0.00712359
0.0434851
0.0492776
0.106126
0.111706
0.0281539
0.00294223
0.0873516
0.0352411
-0.00662877
-0.00655172
-0.00641438
-0.00636697
-0.00668942
-0.00643504
-0.00623628
-0.00621077
-0.00610703
-0.00609815
-0.00622995
-0.00608587
-0.00671626
-0.00641027
-0.00666548
-0.00630747
-0.00617496
-0.00602138
-0.00604856
-0.00589954
-0.00602262
-0.00602647
-0.00598023
-0.00599418
-0.0059924
-0.00594486
-0.00597477
-0.00599774
-0.00600189
-0.00603139
-0.0059359
-0.00595966
-0.00592557
-0.00588036
-0.00581367
-0.00578193
-0.00587494
-0.00590208
-0.00578939
-0.0058279
-0.00647353
-0.00608847
-0.00603618
-0.00568559
-0.00582793
-0.00570826
-0.00547657
-0.00543101
-0.00509335
-0.00500185
-0.00032401
-0.00384177
-0.00497605
-0.00506883
-0.00428629
-0.00461613
-0.00565056
-0.00564682
-0.0054308
-0.00547441
-0.00567833
-0.00573714
-0.00554299
-0.00563145
-0.00516232
-0.00527217
-0.00485412
-0.00505042
-0.00538922
-0.00551511
-0.00522572
-0.00539453
-0.00493878
-0.0039413
-0.00453623
-0.00324996
0.0401433
0.0982612
0.0477789
0.104928
-0.00468641
-0.00344711
-0.00532462
-0.00443274
0.035645
0.093115
0.0106281
0.0539469
0.113584
0.114005
0.112733
0.113698
0.110918
0.0667145
0.113024
0.0764931
0.113482
0.115193
0.0944083
0.104428
0.11395
0.0683109
0.0850155
0.0341603
-0.00611035
-0.00554846
-0.00685318
-0.00637794
-0.0045459
0.0096238
-0.00612788
-0.00631822
-0.00770217
-0.00726225
-0.00861999
-0.00828659
-0.00699521
-0.00687279
-0.00800315
-0.00768617
0.033754
0.0424558
-0.00686457
-0.00699429
0.0239585
0.000985509
-0.00733749
-0.00642905
-0.00637728
-0.00539636
-0.0054215
-0.00256216
-0.00548226
-0.00475926
-0.00388259
-0.00458906
0.0115823
-0.0027436
0.0193814
-0.00250826
-0.00366857
-0.00420619
-0.00346886
-0.00401152
0.0107743
-0.00312098
-0.0015716
-0.00408195
-0.00366749
-0.00402697
-0.00402815
-0.00413392
-0.00457314
-0.00484432
-0.00439937
-0.00469289
-0.00507162
-0.00528073
-0.00494634
-0.00518374
-0.00433188
-0.00459755
-0.0043132
-0.00452959
-0.00485184
-0.00510546
-0.00477351
-0.00503732
-0.00512457
-0.00449213
-0.00478111
-0.00431499
-0.00414126
-0.00412788
-0.00396428
-0.00397288
-0.00353627
-0.00354774
-0.00336794
-0.00339843
-0.0034447
-0.00364126
-0.003282
-0.00350021
-0.00424561
-0.00444236
-0.00410608
-0.0043228
-0.00468907
-0.00496758
-0.00459177
-0.00489288
-0.0038851
-0.00416977
-0.00377154
-0.00407859
-0.00448276
-0.00481243
-0.00441182
-0.00475604
-0.00471364
-0.00509431
-0.00547925
-0.0047353
-0.00510252
-0.00546272
-0.00584106
-0.00628145
-0.00576528
-0.00611318
-0.00480309
-0.00515626
-0.00549644
-0.00490927
-0.00524498
-0.00556044
-0.00576983
-0.00606903
-0.00580057
-0.00605029
0.000210464
0.0250493
0.0111979
0.0388312
0.0463697
0.0500696
0.0495367
0.0504457
0.0186582
0.046731
0.0206362
0.0488244
0.0502657
0.0508193
0.0504954
0.0509693
-0.00508821
-0.00538603
-0.00567726
-0.00529975
-0.00556661
-0.00585384
-0.00590379
-0.00617735
-0.00611779
-0.00648326
-0.0055239
-0.00577274
-0.00608085
-0.0057078
-0.00595037
-0.00627327
-0.00643622
-0.0069642
-0.0066894
-0.00730513
0.0170868
0.0451903
0.00800944
0.0360074
0.0502662
0.0509126
0.0498559
0.0507893
-0.00297683
0.0204666
-0.00816611
0.00105046
0.045006
0.0507968
0.0241745
0.0443343
0.0508956
0.051205
0.0509508
0.0510393
0.0507798
0.0498219
0.0506018
0.0497972
0.0510708
0.0509852
0.0511576
0.0510122
0.0504839
0.0496886
0.0504544
0.0496087
0.0488057
0.0444464
0.0489712
0.0484307
0.0201733
-0.00501299
0.0334992
0.00391385
0.0488386
0.0481428
0.0486433
0.0477051
0.039927
0.0103708
0.040415
0.0111351
0.0512303
0.0511395
0.0513282
0.0513434
0.0505457
0.0496035
0.0506938
0.0495819
0.0514439
0.0515366
0.0514697
0.0516471
0.0507845
0.0494451
0.0507842
0.0478575
0.0484966
0.0473903
0.0482722
0.0464142
0.0360566
0.00730004
0.0265687
-0.000716559
0.0479405
0.0371916
0.0365462
0.0138612
0.0105161
-0.00748975
-0.00454745
-0.00902694
-0.00584766
-0.00607393
-0.00637738
-0.00594398
-0.00614674
-0.00641381
-0.00677074
-0.00730794
-0.00674903
-0.00716992
-0.00600566
-0.00618294
-0.00641337
-0.00604458
-0.00619574
-0.00639227
-0.00669541
-0.00703359
-0.00663046
-0.00691006
-0.00812223
-0.00884022
-0.00776002
-0.00854712
-0.000988869
0.0152362
-0.00943798
-0.00834687
-0.00747108
-0.00800269
-0.00725244
-0.00764221
-0.00858963
-0.00897734
-0.00805288
-0.00834877
-0.00606357
-0.0061889
-0.0063529
-0.00606708
-0.00616949
-0.00630565
-0.00655
-0.00677852
-0.0064688
-0.00665608
-0.00605689
-0.00613959
-0.00625239
-0.00603139
-0.0061013
-0.00619604
-0.00638737
-0.00654085
-0.00630957
-0.00643748
-0.00704779
-0.00734408
-0.00687004
-0.00709996
-0.00765167
-0.00789718
-0.00733373
-0.00753304
-0.0067118
-0.00689274
-0.00657696
-0.00672282
-0.00707565
-0.00723992
-0.00686973
-0.00700686
0.0276921
0.0327784
-0.00280633
0.00207392
0.0309403
0.0224966
0.000640923
-0.00560535
-0.0091826
-0.00935961
-0.00854551
-0.00870711
-0.00944063
-0.0094348
-0.00877744
-0.00878328
0.0076326
-0.00573544
-0.00985978
-0.00982091
-0.00961317
-0.00885804
-0.00914066
-0.0085975
-0.00932517
-0.009052
-0.00873013
-0.00857914
-0.00867074
-0.00831781
-0.0083441
-0.00809669
-0.00807709
-0.00821725
-0.00769471
-0.00782423
-0.00829764
-0.00832668
-0.00790675
-0.00794653
-0.00738058
-0.0074973
-0.00713029
-0.00723671
-0.00758274
-0.00763655
-0.00732106
-0.00738227
-0.00829871
-0.00820646
-0.00794587
-0.00790219
-0.00805862
-0.00788895
-0.00781716
-0.0077107
-0.00765847
-0.00764944
-0.00742143
-0.00744089
-0.0076124
-0.00755935
-0.00744343
-0.00743714
-0.0097862
-0.0096139
-0.0109739
-0.0110654
-0.00915443
-0.00878433
-0.0102646
-0.00997359
-0.0114977
-0.0119347
-0.0120294
-0.0140475
-0.0119898
0.00109017
-0.0173147
0.0277655
-0.00305148
-0.00371993
0.00561948
0.0133836
-0.0083529
-0.0027078
-0.0103414
-0.0170037
0.0480894
0.0835058
0.106906
0.148147
0.0384317
-0.012301
0.118939
0.035899
-0.0112413
-0.0128319
-0.00928712
-0.0088788
-0.0150724
0.0297685
-0.00773814
0.00740639
-0.00869286
-0.00819063
-0.0085351
-0.00791967
-0.00712682
-0.00402817
-0.00696699
-0.00553275
0.10861
0.156522
0.0533125
0.108715
0.15651
0.0674885
0.110826
0.0388355
0.00970606
0.032237
-0.000782986
-0.00397998
0.0257294
-0.00264578
-0.0103904
-0.00888393
-0.000226775
-0.001898
-0.00593125
-0.00336959
-0.00248579
-0.00308073
-0.00316764
-0.00334218
-0.0107493
-0.0046598
-0.00669506
-0.00473537
-0.00397834
-0.00366356
-0.00428846
-0.00384661
-0.00355667
-0.0039598
-0.00370079
-0.00403031
-0.00434473
-0.00471364
-0.00438416
-0.0047353
-0.00390135
-0.00415583
-0.00406198
-0.00430123
-0.00447264
-0.00480309
-0.00459602
-0.00490927
-0.00707092
-0.00712137
-0.010375
-0.00830211
-0.00561796
-0.00466397
-0.00643583
-0.00536034
-0.0112699
-0.00831773
-0.0076387
-0.00687188
-0.0067771
-0.00584615
-0.00623653
-0.00579847
-0.00455979
-0.00463766
-0.00503702
-0.00498655
-0.00483294
-0.00508821
-0.00509746
-0.00529975
-0.00543679
-0.00531212
-0.00556137
-0.00549727
-0.0053628
-0.0055239
-0.00555582
-0.0057078
-0.00827626
-0.00756847
-0.00813499
-0.00754619
-0.00666002
-0.00540627
-0.00690962
-0.00606867
-0.00795881
-0.00749348
-0.0078262
-0.00748358
-0.0070232
-0.00642114
-0.00715363
-0.00673909
-0.00277964
-0.00564115
-0.00484457
-0.0061261
-0.0089515
-0.00718062
-0.00742365
-0.00655106
-0.00582105
-0.00637351
-0.00641735
-0.00659392
-0.00686573
-0.00640129
-0.00671382
-0.00643535
-0.0076953
-0.00745629
-0.00758403
-0.00742896
-0.0072263
-0.00694295
-0.00727555
-0.00708522
-0.00749216
-0.00740759
-0.00742412
-0.0074017
-0.00731874
-0.00720041
-0.00737235
-0.00731491
-0.00673716
-0.00672618
-0.0069386
-0.00685712
-0.00668298
-0.00648451
-0.00674747
-0.00657059
-0.00709151
-0.00698381
-0.00723838
-0.00712425
-0.00684269
-0.00666315
-0.00696173
-0.00676297
-0.0066549
-0.00629966
-0.00625432
-0.00604471
-0.00598417
-0.00578061
-0.00586111
-0.00577422
-0.00614709
-0.00599319
-0.00620594
-0.00606096
-0.0058543
-0.00580484
-0.00593027
-0.00587686
-0.00565361
-0.00563565
-0.00571934
-0.00573453
-0.00570381
-0.00584766
-0.00580979
-0.00594398
-0.00578165
-0.00581003
-0.00585487
-0.00587756
-0.00588432
-0.00600566
-0.00594065
-0.00604458
-0.0062802
-0.00613852
-0.00637688
-0.00622684
-0.00601276
-0.00594869
-0.0060963
-0.00601619
-0.00646812
-0.00630425
-0.00655172
-0.00636697
-0.00616391
-0.00606773
-0.00621077
-0.00609815
-0.00591935
-0.00593042
-0.00597319
-0.005969
-0.00597869
-0.00606357
-0.00600085
-0.00606708
-0.0060102
-0.00599105
-0.00602647
-0.00599418
-0.00600749
-0.00605689
-0.00599774
-0.00603609

SCALARS U float
LOOKUP_TABLE default
0.0239981
0.0248806
0.0241371
0.0251044
0.025692
0.0260622
0.0239346
0.0247269
0.0254254
0.0263894
0.0269436
0.0269048
0.0276697
0.0259891
0.0263601
0.0239505
0.0246733
0.0252944
0.0240543
0.0247289
0.0253086
0.0257741
0.0260589
0.0257517
0.0260039
0.0271478
0.0281243
0.0270137
0.028158
0.0264668
0.026234
0.0263952
0.0275888
0.0252358
0.0262922
0.025596
0.02453
0.0260876
0.0257997
0.0260047
0.0256949
0.0251491
0.0241271
0.025031
0.0240056
0.0242377
0.0248883
0.0254643
0.0244665
0.0251255
0.0257418
0.0259195
0.0261928
0.0262636
0.0266181
0.0246965
0.0254031
0.0261084
0.0248699
0.0256625
0.0265038
0.0267569
0.0272612
0.0273398
0.0280692
0.0262148
0.025915
0.0267183
0.0264688
0.0252367
0.0241626
0.0257829
0.0246193
0.0275095
0.0273675
0.0285534
0.0286079
0.0266966
0.0254102
0.0280102
0.0265887
0.0235769
0.0242911
0.0215805
0.0218045
0.0230818
0.0213777
0.0195015
0.0192117
0.0176139
0.0169253
0.0196039
0.0179588
0.0227799
0.0212144
0.0226627
0.0211032
0.0195817
0.0180422
0.0194686
0.0179091
0.0161271
0.0152369
0.0151235
0.0142168
0.0166051
0.0156263
0.0145867
0.0137791
0.0144303
0.0137536
0.015044
0.0148251
0.0167353
0.015746
0.0165592
0.0155073
0.0151193
0.0148632
0.0148142
0.0145205
0.0227325
0.0210547
0.0230107
0.021088
0.0192843
0.0175865
0.019048
0.0171027
0.0235266
0.0212189
0.0243261
0.0214646
0.0187638
0.0164622
0.0184181
0.0156394
0.0161096
0.0149493
0.0154371
0.0141609
0.0141719
0.0138354
0.0133327
0.013003
0.014567
0.0132106
0.0134922
0.0121316
0.0124249
0.0122132
0.01153
0.0115494
0.0249374
0.0258306
0.026835
0.0248288
0.0257986
0.0269549
0.0279049
0.0289341
0.0282758
0.0296817
0.0244377
0.0254217
0.0266763
0.0236529
0.0245523
0.0258175
0.0282428
0.0301449
0.0276291
0.030256
0.0297689
0.0301687
0.0310467
0.0320814
0.0297722
0.0282426
0.0321818
0.0306583
0.0323815
0.0346161
0.0339655
0.0382995
0.0357434
0.0343672
0.0411936
0.0400572
0.0223926
0.0231023
0.0242905
0.0206615
0.0210832
0.0220941
0.0263756
0.0300376
0.0243821
0.0290653
0.0185866
0.018606
0.0192101
0.0163846
0.0158886
0.0157328
0.0211887
0.0257141
0.0165153
0.0188824
0.0358719
0.0430529
0.0366565
0.0453404
0.0477856
0.0460223
0.049311
0.0444266
0.0323496
0.0370345
0.021364
0.0184053
0.0348023
0.0271323
0.00951933
0.00424994
0.0254826
0.0218407
0.0272156
0.022378
0.0179574
0.0145313
0.0172034
0.0128241
0.0298736
0.0231247
0.0337679
0.0237875
0.0158862
0.010005
0.0132637
0.00521586
0.0120962
0.0108161
0.0100391
0.00899083
0.0105405
0.0108353
0.0092518
0.0100101
0.0067304
0.00619364
0.0013896
0.00176826
0.00744859
0.00922681
0.00469266
0.00825258
0.0370902
0.0237367
0.0343675
0.0240132
0.010232
0.000121104
0.01437
0.00543569
0.0219803
0.0224781
0.00819172
0.0183514
0.0243162
0.022814
0.0296096
0.0370312
-0.00448334
-0.00343941
-0.00110767
-0.00286622
0.00122949
0.00703402
0.000519707
0.00706049
0.016788
0.00993788
0.0368604
0.030085
0.00767842
0.0111708
0.023017
0.0209077
0.0145503
0.0139789
0.0148394
0.0143171
0.01491
0.0152258
0.0151818
0.0146497
0.0154985
0.0149389
0.0156539
0.0160717
0.0149566
0.0153712
0.0146322
0.0151878
0.0159923
0.0166596
0.0161266
0.0172809
0.0157203
0.0151456
0.0158681
0.0153413
0.0163485
0.0164313
0.0160793
0.0156909
0.0164949
0.0162468
0.0164687
0.0167311
0.0171226
0.0171654
0.0181547
0.018199
0.0169663
0.0170306
0.0176517
0.0174441
0.013942
0.0146658
0.0131343
0.0142252
0.0161778
0.0183092
0.0168221
0.0199942
0.0124453
0.0139897
0.0118933
0.0129703
0.0170157
0.018774
0.0138371
0.0126486
0.0198266
0.0195196
0.0212479
0.0195984
0.0180949
0.0174862
0.0167062
0.015678
0.0182173
0.017112
0.0121722
0.0148144
0.0145197
0.0126814
0.016016
0.0148812
0.0171751
0.0170182
0.0180549
0.0179544
0.0173479
0.0182047
0.019042
0.0189704
0.0200734
0.02002
0.0191776
0.0201948
0.0176119
0.0184747
0.0180454
0.0189456
0.0194335
0.0204281
0.0198597
0.0208046
0.0211001
0.0210661
0.0221003
0.0220951
0.0211955
0.0221582
0.0230681
0.0231104
0.0239981
0.0240911
0.023074
0.0239346
0.0213853
0.0222957