# vtk DataFile Version 2.0
Gerris simulation version 1.3.2 (131206-155120)
ASCII
DATASET UNSTRUCTURED_GRID

POINTS 1089 float
-0.5 0.46875 0
-0.46875 0.46875 0
-0.5 0.5 0
-0.46875 0.5 0
-0.4375 0.46875 0
-0.4375 0.5 0
-0.5 0.4375 0
-0.46875 0.4375 0
-0.4375 0.4375 0
-0.40625 0.46875 0
-0.40625 0.5 0
-0.375 0.46875 0
-0.375 0.5 0
-0.40625 0.4375 0
-0.375 0.4375 0
-0.5 0.40625 0
-0.46875 0.40625 0
-0.4375 0.40625 0
-0.5 0.375 0
-0.46875 0.375 0
-0.4375 0.375 0
-0.40625 0.40625 0
-0.375 0.40625 0
-0.40625 0.375 0
-0.375 0.375 0
-0.34375 0.46875 0
-0.34375 0.5 0
-0.3125 0.46875 0
-0.3125 0.5 0
-0.34375 0.4375 0
-0.3125 0.4375 0
-0.28125 0.46875 0
-0.28125 0.5 0
-0.25 0.46875 0
-0.25 0.5 0
-0.28125 0.4375 0
-0.25 0.4375 0
-0.34375 0.40625 0
-0.3125 0.40625 0
-0.34375 0.375 0
-0.3125 0.375 0
-0.28125 0.40625 0
-0.25 0.40625 0
-0.28125 0.375 0
-0.25 0.375 0
-0.5 0.34375 0
-0.46875 0.34375 0
-0.4375 0.34375 0
-0.5 0.3125 0
-0.46875 0.3125 0
-0.4375 0.3125 0
-0.40625 0.34375 0
-0.375 0.34375 0
-0.40625 0.3125 0
-0.375 0.3125 0
-0.5 0.28125 0
-0.46875 0.28125 0
-0.4375 0.28125 0
-0.5 0.25 0
-0.46875 0.25 0
-0.4375 0.25 0
-0.40625 0.28125 0
-0.375 0.28125 0
-0.40625 0.25 0
-0.375 0.25 0
-0.34375 0.34375 0
-0.3125 0.34375 0
-0.34375 0.3125 0
-0.3125 0.3125 0
-0.28125 0.34375 0
-0.25 0.34375 0
-0.28125 0.3125 0
-0.25 0.3125 0
-0.34375 0.28125 0
-0.3125 0.28125 0
-0.34375 0.25 0
-0.3125 0.25 0
-0.28125 0.28125 0
-0.25 0.28125 0
-0.28125 0.25 0
-0.25 0.25 0
-0.21875 0.46875 0
-0.21875 0.5 0
-0.1875 0.46875 0
-0.1875 0.5 0
-0.21875 0.4375 0
-0.1875 0.4375 0
-0.15625 0.46875 0
-0.15625 0.5 0
-0.125 0.46875 0
-0.125 0.5 0
-0.15625 0.4375 0
-0.125 0.4375 0
-0.21875 0.40625 0
-0.1875 0.40625 0
-0.21875 0.375 0
-0.1875 0.375 0
-0.15625 0.40625 0
-0.125 0.40625 0
-0.15625 0.375 0
-0.125 0.375 0
-0.09375 0.46875 0
-0.09375 0.5 0
-0.0625 0.46875 0
-0.0625 0.5 0
-0.09375 0.4375 0
-0.0625 0.4375 0
-0.03125 0.46875 0
-0.03125 0.5 0
0 0.46875 0
0 0.5 0
-0.03125 0.4375 0
0 0.4375 0
-0.09375 0.40625 0
-0.0625 0.40625 0
-0.09375 0.375 0
-0.0625 0.375 0
-0.03125 0.40625 0
0 0.40625 0
-0.03125 0.375 0
0 0.375 0
-0.21875 0.34375 0
-0.1875 0.34375 0
-0.21875 0.3125 0
-0.1875 0.3125 0
-0.15625 0.34375 0
-0.125 0.34375 0
-0.15625 0.3125 0
-0.125 0.3125 0
-0.21875 0.28125 0
-0.1875 0.28125 0
-0.21875 0.25 0
-0.1875 0.25 0
-0.15625 0.28125 0
-0.125 0.28125 0
-0.15625 0.25 0
-0.125 0.25 0
-0.09375 0.34375 0
-0.0625 0.34375 0
-0.09375 0.3125 0
-0.0625 0.3125 0
-0.03125 0.34375 0
0 0.34375 0
-0.03125 0.3125 0
0 0.3125 0
-0.09375 0.28125 0
-0.0625 0.28125 0
-0.09375 0.25 0
-0.0625 0.25 0
-0.03125 0.28125 0
0 0.28125 0
-0.03125 0.25 0
0 0.25 0
-0.5 0.21875 0
-0.46875 0.21875 0
-0.4375 0.21875 0
-0.5 0.1875 0
-0.46875 0.1875 0
-0.4375 0.1875 0
-0.40625 0.21875 0
-0.375 0.21875 0
-0.40625 0.1875 0
-0.375 0.1875 0
-0.5 0.15625 0
-0.46875 0.15625 0
-0.4375 0.15625 0
-0.5 0.125 0
-0.46875 0.125 0
-0.4375 0.125 0
-0.40625 0.15625 0
-0.375 0.15625 0
-0.40625 0.125 0
-0.375 0.125 0
-0.34375 0.21875 0
-0.3125 0.21875 0
-0.34375 0.1875 0
-0.3125 0.1875 0
-0.28125 0.21875 0
-0.25 0.21875 0
-0.28125 0.1875 0
-0.25 0.1875 0
-0.34375 0.15625 0
-0.3125 0.15625 0
-0.34375 0.125 0
-0.3125 0.125 0
-0.28125 0.15625 0
-0.25 0.15625 0
-0.28125 0.125 0
-0.25 0.125 0
-0.5 0.09375 0
-0.46875 0.09375 0
-0.4375 0.09375 0
-0.5 0.0625 0
-0.46875 0.0625 0
-0.4375 0.0625 0
-0.40625 0.09375 0
-0.375 0.09375 0
-0.40625 0.0625 0
-0.375 0.0625 0
-0.5 0.03125 0
-0.46875 0.03125 0
-0.4375 0.03125 0
-0.5 0 0
-0.46875 0 0
-0.4375 0 0
-0.40625 0.03125 0
-0.375 0.03125 0
-0.40625 0 0
-0.375 0 0
-0.34375 0.09375 0
-0.3125 0.09375 0
-0.34375 0.0625 0
-0.3125 0.0625 0
-0.28125 0.09375 0
-0.25 0.09375 0
-0.28125 0.0625 0
-0.25 0.0625 0
-0.34375 0.03125 0
-0.3125 0.03125 0
-0.34375 0 0
-0.3125 0 0
-0.28125 0.03125 0
-0.25 0.03125 0
-0.28125 0 0
-0.25 0 0
-0.21875 0.21875 0
-0.1875 0.21875 0
-0.21875 0.1875 0
-0.1875 0.1875 0
-0.15625 0.21875 0
-0.125 0.21875 0
-0.15625 0.1875 0
-0.125 0.1875 0
-0.21875 0.15625 0
-0.1875 0.15625 0
-0.21875 0.125 0
-0.1875 0.125 0
-0.15625 0.15625 0
-0.125 0.15625 0
-0.15625 0.125 0
-0.125 0.125 0
-0.09375 0.21875 0
-0.0625 0.21875 0
-0.09375 0.1875 0
-0.0625 0.1875 0
-0.03125 0.21875 0
0 0.21875 0
-0.03125 0.1875 0
0 0.1875 0
-0.09375 0.15625 0
-0.0625 0.15625 0
-0.09375 0.125 0
-0.0625 0.125 0
-0.03125 0.15625 0
0 0.15625 0
-0.03125 0.125 0
0 0.125 0
-0.21875 0.09375 0
-0.1875 0.09375 0
-0.21875 0.0625 0
-0.1875 0.0625 0
-0.15625 0.09375 0
-0.125 0.09375 0
-0.15625 0.0625 0
-0.125 0.0625 0
-0.21875 0.03125 0
-0.1875 0.03125 0
-0.21875 0 0
-0.1875 0 0
-0.15625 0.03125 0
-0.125 0.03125 0
-0.15625 0 0
-0.125 0 0
-0.09375 0.09375 0
-0.0625 0.09375 0
-0.09375 0.0625 0
-0.0625 0.0625 0
-0.03125 0.09375 0
0 0.09375 0
-0.03125 0.0625 0
0 0.0625 0
-0.09375 0.03125 0
-0.0625 0.03125 0
-0.09375 0 0
-0.0625 0 0
-0.03125 0.03125 0
0 0.03125 0
-0.03125 0 0
0 0 0
0.03125 0.46875 0
0.03125 0.5 0
0.0625 0.46875 0
0.0625 0.5 0
0.03125 0.4375 0
0.0625 0.4375 0
0.09375 0.46875 0
0.09375 0.5 0
0.125 0.46875 0
0.125 0.5 0
0.09375 0.4375 0
0.125 0.4375 0
0.03125 0.40625 0
0.0625 0.40625 0
0.03125 0.375 0
0.0625 0.375 0
0.09375 0.40625 0
0.125 0.40625 0
0.09375 0.375 0
0.125 0.375 0
0.15625 0.46875 0
0.15625 0.5 0
0.1875 0.46875 0
0.1875 0.5 0
0.15625 0.4375 0
0.1875 0.4375 0
0.21875 0.46875 0
0.21875 0.5 0
0.25 0.46875 0
0.25 0.5 0
0.21875 0.4375 0
0.25 0.4375 0
0.15625 0.40625 0
0.1875 0.40625 0
0.15625 0.375 0
0.1875 0.375 0
0.21875 0.40625 0
0.25 0.40625 0
0.21875 0.375 0
0.25 0.375 0
0.03125 0.34375 0
0.0625 0.34375 0
0.03125 0.3125 0
0.0625 0.3125 0
0.09375 0.34375 0
0.125 0.34375 0
0.09375 0.3125 0
0.125 0.3125 0
0.03125 0.28125 0
0.0625 0.28125 0
0.03125 0.25 0
0.0625 0.25 0
0.09375 0.28125 0
0.125 0.28125 0
0.09375 0.25 0
0.125 0.25 0
0.15625 0.34375 0
0.1875 0.34375 0
0.15625 0.3125 0
0.1875 0.3125 0
0.21875 0.34375 0
0.25 0.34375 0
0.21875 0.3125 0
0.25 0.3125 0
0.15625 0.28125 0
0.1875 0.28125 0
0.15625 0.25 0
0.1875 0.25 0
0.21875 0.28125 0
0.25 0.28125 0
0.21875 0.25 0
0.25 0.25 0
0.28125 0.46875 0
0.28125 0.5 0
0.3125 0.46875 0
0.3125 0.5 0
0.28125 0.4375 0
0.3125 0.4375 0
0.34375 0.46875 0
0.34375 0.5 0
0.375 0.46875 0
0.375 0.5 0
0.34375 0.4375 0
0.375 0.4375 0
0.28125 0.40625 0
0.3125 0.40625 0
0.28125 0.375 0
0.3125 0.375 0
0.34375 0.40625 0
0.375 0.40625 0
0.34375 0.375 0
0.375 0.375 0
0.40625 0.46875 0
0.40625 0.5 0
0.4375 0.46875 0
0.4375 0.5 0
0.40625 0.4375 0
0.4375 0.4375 0
0.46875 0.46875 0
0.46875 0.5 0
0.5 0.46875 0
0.5 0.5 0
0.46875 0.4375 0
0.5 0.4375 0
0.40625 0.40625 0
0.4375 0.40625 0
0.40625 0.375 0
0.4375 0.375 0
0.46875 0.40625 0
0.5 0.40625 0
0.46875 0.375 0
0.5 0.375 0
0.28125 0.34375 0
0.3125 0.34375 0
0.28125 0.3125 0
0.3125 0.3125 0
0.34375 0.34375 0
0.375 0.34375 0
0.34375 0.3125 0
0.375 0.3125 0
0.28125 0.28125 0
0.3125 0.28125 0
0.28125 0.25 0
0.3125 0.25 0
0.34375 0.28125 0
0.375 0.28125 0
0.34375 0.25 0
0.375 0.25 0
0.40625 0.34375 0
0.4375 0.34375 0
0.40625 0.3125 0
0.4375 0.3125 0
0.46875 0.34375 0
0.5 0.34375 0
0.46875 0.3125 0
0.5 0.3125 0
0.40625 0.28125 0
0.4375 0.28125 0
0.40625 0.25 0
0.4375 0.25 0
0.46875 0.28125 0
0.5 0.28125 0
0.46875 0.25 0
0.5 0.25 0
0.03125 0.21875 0
0.0625 0.21875 0
0.03125 0.1875 0
0.0625 0.1875 0
0.09375 0.21875 0
0.125 0.21875 0
0.09375 0.1875 0
0.125 0.1875 0
0.03125 0.15625 0
0.0625 0.15625 0
0.03125 0.125 0
0.0625 0.125 0
0.09375 0.15625 0
0.125 0.15625 0
0.09375 0.125 0
0.125 0.125 0
0.15625 0.21875 0
0.1875 0.21875 0
0.15625 0.1875 0
0.1875 0.1875 0
0.21875 0.21875 0
0.25 0.21875 0
0.21875 0.1875 0
0.25 0.1875 0
0.15625 0.15625 0
0.1875 0.15625 0
0.15625 0.125 0
0.1875 0.125 0
0.21875 0.15625 0
0.25 0.15625 0
0.21875 0.125 0
0.25 0.125 0
0.03125 0.09375 0
0.0625 0.09375 0
0.03125 0.0625 0
0.0625 0.0625 0
0.09375 0.09375 0
0.125 0.09375 0
0.09375 0.0625 0
0.125 0.0625 0
0.03125 0.03125 0
0.0625 0.03125 0
0.03125 0 0
0.0625 0 0
0.09375 0.03125 0
0.125 0.03125 0
0.09375 0 0
0.125 0 0
0.15625 0.09375 0
0.1875 0.09375 0
0.15625 0.0625 0
0.1875 0.0625 0
0.21875 0.09375 0
0.25 0.09375 0
0.21875 0.0625 0
0.25 0.0625 0
0.15625 0.03125 0
0.1875 0.03125 0
0.15625 0 0
0.1875 0 0
0.21875 0.03125 0
0.25 0.03125 0
0.21875 0 0
0.25 0 0
0.28125 0.21875 0
0.3125 0.21875 0
0.28125 0.1875 0
0.3125 0.1875 0
0.34375 0.21875 0
0.375 0.21875 0
0.34375 0.1875 0
0.375 0.1875 0
0.28125 0.15625 0
0.3125 0.15625 0
0.28125 0.125 0
0.3125 0.125 0
0.34375 0.15625 0
0.375 0.15625 0
0.34375 0.125 0
0.375 0.125 0
0.40625 0.21875 0
0.4375 0.21875 0
0.40625 0.1875 0
0.4375 0.1875 0
0.46875 0.21875 0
0.5 0.21875 0
0.46875 0.1875 0
0.5 0.1875 0
0.40625 0.15625 0
0.4375 0.15625 0
0.40625 0.125 0
0.4375 0.125 0
0.46875 0.15625 0
0.5 0.15625 0
0.46875 0.125 0
0.5 0.125 0
0.28125 0.09375 0
0.3125 0.09375 0
0.28125 0.0625 0
0.3125 0.0625 0
0.34375 0.09375 0
0.375 0.09375 0
0.34375 0.0625 0
0.375 0.0625 0
0.28125 0.03125 0
0.3125 0.03125 0
0.28125 0 0
0.3125 0 0
0.34375 0.03125 0
0.375 0.03125 0
0.34375 0 0
0.375 0 0
0.40625 0.09375 0
0.4375 0.09375 0
0.40625 0.0625 0
0.4375 0.0625 0
0.46875 0.09375 0
0.5 0.09375 0
0.46875 0.0625 0
0.5 0.0625 0
0.40625 0.03125 0
0.4375 0.03125 0
0.40625 0 0
0.4375 0 0
0.46875 0.03125 0
0.5 0.03125 0
0.46875 0 0
0.5 0 0
-0.5 -0.03125 0
-0.46875 -0.03125 0
-0.4375 -0.03125 0
-0.5 -0.0625 0
-0.46875 -0.0625 0
-0.4375 -0.0625 0
-0.40625 -0.03125 0
-0.375 -0.03125 0
-0.40625 -0.0625 0
-0.375 -0.0625 0
-0.5 -0.09375 0
-0.46875 -0.09375 0
-0.4375 -0.09375 0
-0.5 -0.125 0
-0.46875 -0.125 0
-0.4375 -0.125 0
-0.40625 -0.09375 0
-0.375 -0.09375 0
-0.40625 -0.125 0
-0.375 -0.125 0
-0.34375 -0.03125 0
-0.3125 -0.03125 0
-0.34375 -0.0625 0
-0.3125 -0.0625 0
-0.28125 -0.03125 0
-0.25 -0.03125 0
-0.28125 -0.0625 0
-0.25 -0.0625 0
-0.34375 -0.09375 0
-0.3125 -0.09375 0
-0.34375 -0.125 0
-0.3125 -0.125 0
-0.28125 -0.09375 0
-0.25 -0.09375 0
-0.28125 -0.125 0
-0.25 -0.125 0
-0.5 -0.15625 0
-0.46875 -0.15625 0
-0.4375 -0.15625 0
-0.5 -0.1875 0
-0.46875 -0.1875 0
-0.4375 -0.1875 0
-0.40625 -0.15625 0
-0.375 -0.15625 0
[...]
POINT_DATA 1089
SCALARS T float
LOOKUP_TABLE default
0
0
0
0
0
0
0
0
0
0
0
0
0
0
0
0
0
0
0
0
0
0
0
0
0
0
0
0
0
0
0
0
0
0
0
0
0
0
0
0
0
0
0
0
0
0
0
0
0
0
0
0
0
0
0
0
0
0
0
0
0
0
0
0
0
0
0
0
0
0
0
0
0
0
0
0
0
0
0
0
0
0
0
0
0
0
0
0
0
0
0
0
0
0
0
0
0
0
0
0
0
0
0
0
0
0
0
0
0
0
0
0
0
0
0
0
0
0
0
0
0
0
0
0
0
0
0
0
0
0
0
0
0
0
0
0
0
0
0
0
0
0
0
0
0
0
0
0
0
0
0
0
0
0
0
0
0
0
0
0
0
0
0
0
0
0
0
0
0
0
0
0
0
0
0
0
0
0
0
0
0
0
0
0
0
0
0
0
0
0
0
0
0
0
0
0
0
0
0
0
0
0
0
0
0
0
0
0
0
0
0
0
0
0
0
0
3.32613e-05
0
0.0116658
0.0310081
0.252288
0.133842
0.339964
0.593457
0.839931
0
0
0
0
0
0
0
0
0
0
0
0
0
0
0
0
0
0
0
0
0
0
0
0
0
0
0
0
0
0
0
0
0
0
0.0246616
0.0743031
0
0
0.0932944
0.0547683
0.492416
0.574303
0.967754
1
0.593294
0.550455
1
0.995687
0
0
0.0111487
0
0
0
0
0
0.439519
0.244587
0.92837
0.742124
0.0619039
0
0.42176
0.112319
0
0
0
0
0
0
0
0
0
0
0
0
0
0
0
0
0
0
0
0
0
0
0
0
0
0
0
0
0
0
0
0
0
0
0
0
0
0
0
0
0
0
0
0
0
0
0
0
0
0
0
0
0.0109205
0.161636
0.158658
0.559374
0
0
0.00245261
0.00703558
0
0
0.00458297
0
0.393794
0.492115
0.891341
0.985079
0.418929
0.189371
0.914346
0.609497
0
0
0
0
0
0
0
0
0
0
0
0
0
0
0
0
0
0
0
0
0
0
0
0
0
0
0
0
0
0
0
0
0
0
0
0
0
0
0
0
0
0
0
0
0
0
0
0
0.0194787
0
0.189605
0
0
0
0
0
0
0
0
0
0
0
0
0
0
0
0
0
0
0
0
0
0
0
0
0
0.369688
0.869688
0.41496
0.91496
0
0
0
0
0.249644
0.733883
0.0566358
0.309187
1
1
1
1
1
0.903362
1
0.926221
0.984238
1
0.588987
0.66922
0.975959
0.720775
0.5738
0.292847
0
0
0
0
0
0.018313
0
0
0
0
0
0
0
0
0
0
0.104749
0.16922
0
0
0.0978412
0.0150573
0
0
0
0
0
0
0
0
8.45176e-05
8.45176e-05
0.403362
0
0.426221
0
0
0
0
0
0.244816
0
0.051831
0
0
0
0
0
0
0
0
0
0
0
0
0
0
0
0
0
0
0
0
0
0
0
0
0
0
0
0
0
0
0
0
0
0
0
0
0
0
0
0
0
0
0
0
0
0
0
0
0
0
0
0
0
0
0
0
0
0
0
0
0.00051276
0
0.0482174
0
0
0
0
0
0
0
0.135946
0
0.156472
0.220944
0.680046
0.487641
0.939423
0.959614
1
1
1
0.635946
1
0.656472
1
1
1
1
1
0
0
0
0
0
0
0
0.0764698
0
0.00823931
0
0
0
0
0
0
0
0
0
0
0.551864
0.975394
0.305119
0.791972
1
1
0.995093
1
0.0714856
0.371225
0
0.0546465
0.748642
0.948903
0.253694
0.493921
1
1
1
1
1
1
1
1
1
1
1
1
1
1
1
1
1
0.997538
1
1
0.858259
0.417309
0.998403
0.716542
1
1
1
1
1
0.866211
1
0.896173
1
1
1
1
1
1
1
1
1
1
0.648613
0.734666
1
1
0.759954
0.725421
1
1
1
1
1
0.807535
0.950812
0.577579
0.998095
0.910231
0.625039
0.440781
0.631648
0.230259
0.180836
0.0187007
0
0
0
0
0
0
0
0
0
0
0
0
0
0
0
0
0
0
0
0
0
0
0
0
0.000144477
0.0450181
0
0
0
0
0
0
0
0
0
0
0
0
0
0
0
0
0
0
0
0
0
0
0
0
0
0
0
0
0
0
0
0
0
0
0
0
0
0
0
0
0
0
0
0
0
0
0.148613
0.234666
0
0
0.259954
0.225421
0
0
0
0
0
0
0
0
0
0
0.126944
0.0305504
0
0
0
0
0
0
0
0
0
0
0
0
0
0
0
0
0
0
0
0
0
0
0
0
0
0
0
0
0
0
0
0
0
0
0
0
0
0
0
0
0
0
0
0
0
0
0.0565871
0
0.218138
0
0
0
0
0
0.366211
0
0.396173
0
0
0
0
0
0
0.0468719
0
0.0633616
0.0564374
0.00956546
0.167748
0.125272
0.075035
0.326193
0.245822
0.730491
0.596064
0.539902
0.984669
0.916238
0.307535
0
0.126767
0
0
0
0
0
0.0107461
0
0
0
0
0
0
0
0.323504
0.823504
0.170944
0.574223
1
0.914849
0.812593
0.611229
0.0182272
0.171506
0
0
0.312593
0.188507
0
0
0
0
0.0208863
0
0
0
0
0
0.194997
0
0.416238
0
0
0
0
0
0
0
0
0
0
0
0
0
0
0
0
0
0
0
0
0
0.414849
0
0.201914
0
0
0
0
0
0.0291927
0
0
0
0
0
0
0
0
0
0
0
0
0
0
0
0
0
0
0
0
0
0
0
0
0
0
0
0
0
0
0
0
0
0
0
0
0
0
0
0
0
0
0
0
0
0
0
0
0
0
0
0
0
0
0
0
0
0
0
0
0
0
0
0
0
0
0
0
0
0
0
0
0
0
0
0
0
0
0
0
0
0
0
0
0
0
0
0
0
0
0
0
0
0
0
0
0
0
0
0
0
0
0
0
0
0
0
0
0
0
0
0
0
0
0
0
0
0
0
0
0
0
0
0
0
0
0
0
0
0
0
0
0
0
0
0
0
0
0
0
0
0
0
0
0
0
0
0
0
0
0

SCALARS P float
LOOKUP_TABLE default
-0.00766128
-0.00749909
-0.00766653
-0.00750284
-0.00731098
-0.00730952
-0.00768546
-0.00752201
-0.00733514
-0.00709989
-0.00708751
-0.00687103
-0.00684015
-0.00712938
-0.00691097
-0.00773855
-0.00756879
-0.00737776
-0.00782027
-0.00763775
-0.00743628
-0.00717084
-0.0069547
-0.00722129
-0.00699926
-0.00663237
-0.00657476
-0.00639496
-0.00630287
-0.00668808
-0.00647109
-0.00617396
-0.00604311
-0.00598707
-0.00581894
-0.00627285
-0.00610756
-0.00673745
-0.00652892
-0.00677804
-0.00656716
-0.00634065
-0.00618494
-0.00637773
-0.00622159
-0.00792882
-0.00772673
-0.0075085
-0.00806073
-0.00783306
-0.00759262
-0.0072786
-0.00704273
-0.00734173
-0.00708451
-0.00820898
-0.00795277
-0.00768703
-0.00836436
-0.00808185
-0.00779143
-0.00741064
-0.0071254
-0.0074875
-0.00716881
-0.00680819
-0.00658455
-0.00682734
-0.00658017
-0.00638326
-0.00621715
-0.00635551
-0.00616882
-0.00683618
-0.00655365
-0.00683774
-0.00650606
-0.00629202
-0.00607135
-0.00618997
-0.00591706
-0.00585262
-0.00565628
-0.00578584
-0.00557797
-0.00598906
-0.00592812
-0.00579381
-0.00559465
-0.00587411
-0.00570434
-0.00592947
-0.00599021
-0.00607338
-0.00601456
-0.00610992
-0.00605079
-0.00601204
-0.00606249
-0.00604762
-0.00609682
-0.00601546
-0.00589281
-0.00619849
-0.00613507
-0.00610051
-0.00624357
-0.00640104
-0.00640257
-0.00660179
-0.00667054
-0.00640004
-0.006549
-0.00615643
-0.00627745
-0.00618861
-0.00630544
-0.00640633
-0.00651972
-0.00642628
-0.00652217
-0.00609873
-0.0060372
-0.00603595
-0.00596904
-0.00603703
-0.00609485
-0.00597512
-0.00605178
-0.00591358
-0.00583613
-0.00571931
-0.00562257
-0.00585056
-0.00595628
-0.0056456
-0.00579071
-0.00620038
-0.0063345
-0.00618853
-0.00636487
-0.00647349
-0.00658073
-0.0065547
-0.00671532
-0.00614293
-0.00638904
-0.00604742
-0.00639509
-0.00667006
-0.0069441
-0.00681865
-0.00729122
-0.00851418
-0.00821615
-0.00790728
-0.00865449
-0.00835815
-0.00804164
-0.00757746
-0.00722202
-0.0076909
-0.0072973
-0.00879104
-0.00851623
-0.00820748
-0.00894899
-0.00870959
-0.00842376
-0.00784653
-0.00741944
-0.00806598
-0.0076131
-0.0068392
-0.00644206
-0.006852
-0.00636909
-0.00604802
-0.0056959
-0.0058648
-0.00539572
-0.00690475
-0.00631465
-0.00702184
-0.00629512
-0.00565405
-0.00500332
-0.00541335
-0.00449861
-0.00914016
-0.00895308
-0.00871523
-0.00937256
-0.00925606
-0.00909588
-0.0083925
-0.00795019
-0.00884876
-0.00846171
-0.00963007
-0.00961375
-0.00957969
-0.00989848
-0.0100106
-0.0101541
-0.00948519
-0.00926534
-0.010307
-0.0104309
-0.00731131
-0.00644539
-0.00780026
-0.00673802
-0.00523998
-0.00386287
-0.00503409
-0.00298134
-0.00873841
-0.00688146
-0.00824164
0.00648454
0.00168645
0.0139218
0.0272362
0.0395851
-0.00543433
-0.00530282
-0.00503702
-0.00484919
-0.00533037
-0.00552215
-0.0048747
-0.00512033
-0.00448608
-0.00420353
-0.00375446
-0.00334378
-0.00421715
-0.00453636
-0.00333848
-0.00376157
-0.00586357
-0.00632967
-0.00555773
-0.0061452
-0.00690874
-0.00758998
-0.00685242
-0.00766642
-0.00510342
-0.0058343
-0.00451144
-0.00542934
-0.00664394
-0.0074903
-0.00636436
-0.00720818
-0.00269808
-0.00205735
-0.000273627
0.00261511
-0.0020314
-0.00266688
0.00341577
0.00102873
0.0216503
0.0253596
0.0445662
0.0454494
0.0262614
0.0244864
0.0456151
0.046257
-0.00377691
-0.0050602
-0.00232802
-0.00463563
-0.00624216
-0.00711526
-0.00620703
-0.00721611
0.0191155
0.00813602
0.0442774
0.0355834
-0.00328384
-0.00790019
0.0171128
-0.00225794
-0.00678421
-0.00691998
-0.00693665
-0.00713989
-0.00667405
-0.00676057
-0.00705895
-0.00732659
-0.00715518
-0.00748072
-0.00681181
-0.00683283
-0.00659876
-0.00662009
-0.00656768
-0.00652081
-0.00658742
-0.00649705
-0.00637999
-0.00611294
-0.00724875
-0.00761336
-0.00736688
-0.00773375
-0.00686917
-0.00698222
-0.00751667
-0.00784364
-0.00768204
-0.00793938
-0.00718703
-0.00744783
-0.00643299
-0.00652479
-0.0058721
-0.00592492
-0.00681127
-0.00722383
-0.00635513
-0.00702453
-0.00662252
-0.00652519
-0.00680182
-0.00669297
-0.00626581
-0.00569631
-0.00628766
-0.00519179
-0.00716539
-0.00720488
-0.00782362
-0.00836739
-0.00550842
0.012926
0.0115104
0.059574
-0.00507425
-0.00499591
-0.00373455
-0.0031065
-0.00570237
-0.00687499
-0.00445477
-0.00681772
0.0397439
0.0502442
0.0966171
0.106181
0.0415061
0.0136746
0.0990204
0.0636015
-0.0078265
-0.00800968
-0.00792857
-0.00804843
-0.00768495
-0.00785667
-0.00798535
-0.00805736
-0.00799675
-0.00803637
-0.00796169
-0.00800203
-0.00759318
-0.00784703
-0.00759052
-0.00793693
-0.00800069
-0.00806356
-0.00813082
-0.00819995
-0.0079656
-0.00798612
-0.00789747
-0.00790825
-0.00798555
-0.00792307
-0.00779486
-0.00780185
-0.00766128
-0.00766729
-0.00782071
-0.00768546
-0.00805373
-0.0079894
-0.00818096
-0.00810193
-0.0078809
-0.00773855
-0.00797737
-0.00782027
-0.00775489
-0.00818345
-0.00818594
-0.00866032
-0.00838533
-0.00842783
-0.00880139
-0.00876159
-0.00729294
-0.00958858
0.0121302
-0.0110703
-0.00943223
-0.00920257
-0.0102767
-0.00971284
-0.00837409
-0.00826234
-0.00863563
-0.00846824
-0.00810941
-0.00792882
-0.00827329
-0.00806073
-0.00895299
-0.00870605
-0.00929241
-0.00895051
-0.00845851
-0.00820898
-0.00864886
-0.00836436
-0.00846724
-0.00956835
-0.00869388
-0.0100125
0.037015
0.098323
0.0425384
0.104543
-0.00839286
-0.00947733
-0.00790033
-0.00852502
0.0217617
0.0813538
-0.00161795
0.0295476
0.111538
0.110596
0.112217
0.110889
0.111621
0.101323
0.111243
0.103802
0.109657
0.10964
0.0625601
0.0707862
0.106552
0.0772495
0.0595618
0.0267647
-0.00768435
-0.00800114
-0.00772042
-0.00784475
-0.00786497
-0.00501983
-0.00762937
-0.00723037
-0.00820864
-0.00806507
-0.00909888
-0.00850002
-0.00762935
-0.00725809
-0.00766898
-0.00722082
0.00582185
0.0136078
-0.00658017
-0.00618457
0.00521542
-0.00524143
-0.00690359
-0.00812594
-0.00679694
-0.00667278
-0.00666638
-0.00657531
-0.00796085
-0.00940101
-0.00909934
-0.0113783
0.0386605
-0.011982
0.0417996
-0.0116156
-0.0108239
-0.0100524
-0.0107017
-0.0100612
0.0199228
-0.0104125
-0.00249078
-0.00940671
-0.0100937
-0.00982382
-0.00958922
-0.00961601
-0.00954077
-0.00914609
-0.00961882
-0.00925788
-0.00881688
-0.00851418
-0.00894785
-0.00865449
-0.00955675
-0.00929875
-0.00950183
-0.00934414
-0.00904789
-0.00879104
-0.00915807
-0.00894899
-0.00842306
-0.00921694
-0.00906199
-0.00947873
-0.00949195
-0.00958103
-0.00964286
-0.00968477
-0.00991816
-0.0099441
-0.011255
-0.0106019
-0.00992163
-0.00985207
-0.0102889
-0.0100442
-0.0095256
-0.00942742
-0.00962347
-0.00955525
-0.00929537
-0.00914016
-0.00946782
-0.00937256
-0.00974525
-0.00969283
-0.00986707
-0.00982368
-0.00965064
-0.00963007
-0.00983019
-0.00989848
-0.0101302
-0.0103933
-0.0107571
-0.0102654
-0.0106836
-0.0112608
-0.0112491
-0.0118678
-0.0120732
-0.00970999
-0.0102882
-0.0108174
-0.0115419
-0.0101417
-0.0107579
-0.0115642
-0.0125597
-0.00392631
-0.0126776
-0.00249924
0.00311459
0.0333944
0.0209451
0.0516156
0.0495493
0.0497996
0.0533272
0.0513201
0.0316289
0.0565257
0.0332754
0.0567722
0.0540455
0.0521802
0.0542548
0.0523593
-0.00989174
-0.0105239
-0.0113096
-0.00960502
-0.0101435
-0.0107802
-0.0123719
-0.00807504
-0.0115974
-0.0120546
-0.00927419
-0.00966293
-0.0100775
-0.00895224
-0.00917497
-0.00936905
-0.0105355
-0.0110401
-0.0095076
-0.00951806
0.025818
0.0549446
0.00882017
0.0417497
0.053895
0.0518186
0.0526791
0.0505559
-0.00615561
0.0141534
-0.00922175
-0.00449341
0.0369832
0.0459995
0.00886272
0.0223966
0.048336
0.047699
0.0499745
0.0493508
0.0477622
0.0485064
0.0493552
0.0499634
0.0508763
0.0502198
0.0510308
0.050357
0.0501877
0.0507574
0.0503198
0.050903
0.0498447
0.0515049
0.0511415
0.0528384
0.0446293
0.0165851
0.0549469
0.0366446
0.0518665
0.0534447
0.0520476
0.0537042
0.0554879
0.0473065
0.0558288
0.0496813
0.0504207
0.0497279
0.0489943
0.0482502
0.0497086
0.0503475
0.0482805
0.049052
0.0467862
0.0460628
0.0294529
0.0328927
0.0461862
0.0471413
0.0340106
0.0328835
0.0515822
0.0533863
0.050495
0.0525584
0.0557129
0.0431529
0.0515029
0.0266069
0.0487317
0.0457553
0.0286195
0.0187275
0.0298436
0.00354893
0.00230737
-0.00885679
-0.00865855
-0.00874127
-0.00876534
-0.00840035
-0.00837877
-0.00829095
-0.00869027
-0.00842735
-0.00810012
-0.0077407
-0.00818455
-0.00809192
-0.00793531
-0.00800822
-0.0078734
-0.00768244
-0.00768462
-0.00729496
-0.00741411
-0.00704201
-0.00784869
-0.00663929
-0.00715108
-0.00617975
-0.0045967
-8.17627e-05
-0.00477444
-0.00312883
-0.00673418
-0.00594137
-0.00655275
-0.00592621
-0.00494699
-0.00387749
-0.00519993
-0.00446452
-0.0078719
-0.00771477
-0.00751004
-0.00777046
-0.00760491
-0.00739941
-0.00724414
-0.00690353
-0.00714649
-0.0068411
-0.00770323
-0.00753678
-0.00733655
-0.00766729
-0.00750284
-0.00730952
-0.00709971
-0.00682644
-0.00708751
-0.00684015
-0.00648523
-0.00598912
-0.00648601
-0.00608945
-0.00545104
-0.00493328
-0.00568078
-0.00530482
-0.00652253
-0.00619907
-0.00657476
-0.00630287
-0.00587935
-0.00559526
-0.00604311
-0.00581894
0.00620529
0.0104246
-0.00172887
-0.000984862
0.0114121
0.0092436
-0.00106107
-0.00195373
-0.00298452
-0.00251453
-0.00387405
-0.00357818
-0.002583
-0.00319357
-0.00363688
-0.00404998
0.00327417
-0.00358325
-0.00349912
-0.00527661
-0.00726359
-0.00866269
-0.00681235
-0.00798233
-0.00423176
-0.00543923
-0.00475139
-0.00560176
-0.00655052
-0.00749446
-0.00644258
-0.00719933
-0.00452864
-0.00433073
-0.00502062
-0.00488499
-0.00438003
-0.00467597
-0.00492268
-0.0051325
-0.00538522
-0.00528526
-0.00565628
-0.00557797
-0.0053121
-0.00546421
-0.00559465
-0.00570434
-0.00517308
-0.00578325
-0.00548589
-0.00592915
-0.00641058
-0.00700229
-0.00640126
-0.00686109
-0.00572142
-0.00604773
-0.00589281
-0.00613507
-0.00640276
-0.00675559
-0.00640257
-0.00667054
-0.00668171
-0.00908276
0.00343667
-0.00963269
-0.00753958
-0.00672765
-0.00766864
-0.00681178
0.0137852
-0.00944546
0.0155017
-0.0102446
-0.00660947
-0.00415338
-0.00761747
-0.00472682
-0.00550615
0.00165312
-0.00451376
0.00516525
-0.00284558
-0.0142048
0.0183094
0.00726557
0.0098395
0.0494438
0.0378959
0.118565
0.0979669
0.0884511
0.166308
0.155602
0.00832515
-0.0119107
-0.00429638
-0.0121485
-0.0111893
-0.0105624
-0.0123616
-0.0126623
-0.0112279
-0.011657
-0.0106131
-0.0109741
-0.0121752
-0.0127173
-0.0116822
-0.0123713
0.0499083
0.140134
0.0203421
0.0961507
0.171196
0.152226
0.13952
0.100025
-0.0111964
0.0169765
-0.0140489
-0.0156171
0.0447465
0.0239323
-0.0150527
-0.011941
-0.0137658
-0.0116983
-0.0110262
-0.0114665
-0.0108128
-0.0102409
-0.0104407
-0.00988547
0.022667
-0.0108825
0.064325
-0.00767169
-0.0100703
-0.00957115
-0.00774259
-0.00830624
-0.00994971
-0.00990109
-0.00972088
-0.00978957
-0.00996034
-0.0101302
-0.00996817
-0.0102654
-0.00951037
-0.00963522
-0.00874866
-0.00918147
-0.0098991
-0.0102882
-0.00963619
-0.0101417
0.065129
-0.00318272
0.0287617
-0.00386435
-0.00524812
-0.00706102
-0.0058357
-0.00719148
-0.00221941
-0.00660563
-0.00883255
-0.00807523
-0.00697978
-0.00752615
-0.00791738
-0.0080082
-0.0080259
-0.00873502
-0.00800348
-0.00859541
-0.00932661
-0.00989174
-0.00911028
-0.00960502
-0.00804968
-0.0084896
-0.00823371
-0.00847121
-0.0088924
-0.00927419
-0.00871571
-0.00895224
-0.00952748
-0.0101532
-0.00881851
-0.00948231
-0.0108624
-0.0114985
-0.0101202
-0.0106562
-0.00825136
-0.00887851
-0.00784128
-0.00838752
-0.00943667
-0.0098919
-0.00885806
-0.00923481
-0.0125104
-0.0132876
-0.0112619
-0.0116318
-0.0128213
-0.0111755
-0.0113034
-0.0104329
-0.0103081
-0.010528
-0.00953735
-0.00969049
-0.0103292
-0.00984455
-0.0095979
-0.00934023
-0.00752713
-0.00798412
-0.00728089
-0.00765208
-0.00837462
-0.00868786
-0.00796943
-0.00822631
-0.00708334
-0.0073753
-0.00691998
-0.00713989
-0.00762566
-0.0078313
-0.00732659
-0.00748072
-0.00892835
-0.00905933
-0.00842408
-0.00854695
-0.00904029
-0.00891688
-0.00858
-0.00854611
-0.00799621
-0.00811748
-0.00761336
-0.00773375
-0.0081913
-0.00822556
-0.00784364
-0.00793938
-0.00940388
-0.00863797
-0.00945525
-0.00886727
-0.00834521
-0.00825987
-0.00856283
-0.00840186
-0.0092766
-0.00885356
-0.00901526
-0.00873227
-0.0085941
-0.00842523
-0.00853066
-0.00837931
-0.00832315
-0.00842726
-0.00836028
-0.00836547
-0.00854717
-0.00865855
-0.00838769
-0.00840035
-0.00833662
-0.00828386
-0.00827426
-0.00819036
-0.00824093
-0.00818455
-0.00810778
-0.00800822
-0.00874
-0.00856353
-0.0084702
-0.00837752
-0.00841978
-0.00829752
-0.00828822
-0.00819946
-0.00822685
-0.00820304
-0.00800968
-0.00804843
-0.00816385
-0.00810902
-0.00805736
-0.00803637
-0.00819508
-0.00809903
-0.00811057
-0.0080151
-0.00799563
-0.0078719
-0.00790444
-0.00777046
-0.0080384
-0.00795009
-0.00798612
-0.00790825
-0.00783964
-0.00770323
-0.00780185
-0.00766653

SCALARS U float
LOOKUP_TABLE default
0.0228245
0.0234015
0.0227934
0.0234261
0.0239231
0.0240353
0.0229202
0.0234285
0.0238743
0.0243644
0.0245791
0.024688
0.0250145
0.0242339
0.024474
0.0230789
0.0235231
0.0239085
0.0232959
0.0236844
0.024028
0.0242103
0.024396
0.0242984
0.0244602
0.0248445
0.0252804
0.0247775
0.0252992
0.0245533
0.0244284
0.0244343
0.0249885
0.0237882
0.0242977
0.0240628
0.0234417
0.0244275
0.0242664
0.0244727
0.0242957
0.0238826
0.0232655
0.0238973
0.0232647
0.0235467
0.0238958
0.0242216
0.0237863
0.0241256
0.0244652
0.0244906
0.0246617
0.024768
0.0249855
0.0239645
0.024333
0.0247227
0.0240438
0.0244757
0.0249439
0.025096
0.0253989
0.0254174
0.0258417
0.0246865
0.024516
0.0250579
0.024921
0.0241088
0.0234445
0.0245163
0.0238089
0.0255588
0.0254905
0.026134
0.0261836
0.0251092
0.024357
0.0258659
0.0250845
0.0228608
0.0232476
0.0217226
0.0219293
0.0225856
0.0215518
0.020481
0.0204865
0.0192619
0.0190905
0.0204254
0.0193065
0.0224337
0.0214369
0.0224139
0.0213918
0.0203487
0.0192563
0.0202696
0.0191334
0.0181783
0.0178902
0.0173084
0.0169755
0.018287
0.0174387
0.016684
0.0163666
0.0162949
0.0160207
0.0167999
0.0163825
0.0182419
0.0173762
0.018066
0.0171431
0.0167031
0.0162531
0.0164135
0.0159226
0.022535
0.0214294
0.0228053
0.0215614
0.0202061
0.0189628
0.0201744
0.0187679
0.0232309
0.021799
0.0238171
0.0221493
0.0201896
0.0185691
0.0202548
0.0183593
0.017795
0.016793
0.017467
0.016388
0.0160107
0.0155087
0.0155941
0.0151496
0.0171131
0.0159841
0.0167165
0.0155567
0.0152617
0.0150036
0.0149807
0.0150468
0.024008
0.0245097
0.025061
0.0238628
0.0243876
0.0249893
0.0256468
0.0262227
0.0256792
0.0264434
0.0236104
0.0240607
0.0246496
0.0231565
0.0234491
0.023976
0.0254335
0.0264643
0.0248785
0.0263138
0.0267067
0.026955
0.0272212
0.0278117
0.0267754
0.0260037
0.0278937
0.0271873
0.0277206
0.0288629
0.0282738
0.0300767
0.0293125
0.0286512
0.0307593
0.0299156
0.0224288
0.0225253
0.022978
0.0213794
0.0212758
0.0216318
0.0240539
0.0259998
0.0228142
0.0250216
0.0200872
0.0197708
0.0199342
0.0185877
0.0180041
0.0177168
0.0209507
0.0228358
0.0179614
0.0185483
0.028644
0.0305561
0.027588
0.0281737
0.0304347
0.0286479
0.0257548
0.0227654
0.0244148
0.023982
0.0184962
0.0183911
0.0217634
0.0201327
0.0191512
0.0197318
0.0245828
0.0226238
0.0255842
0.0232462
0.0203608
0.01809
0.0204887
0.0176823
0.0267797
0.0239793
0.0276643
0.0245522
0.0206426
0.0171449
0.0209417
0.0168887
0.0161706
0.014913
0.0153277
0.0138472
0.0144214
0.0146938
0.0133313
0.0136127
0.0141388
0.0122331
0.0130792
0.010471
0.0115698
0.0117828
0.00948197
0.00978643
0.0262017
0.0240228
0.0212849
0.0215679
0.0218853
0.018627
0.022448
0.0218112
0.0198035
0.0195904
0.0195342
0.0184583
0.0192756
0.0189862
0.0172683
0.0173357
0.01442
0.0106115
0.0190093
0.014655
0.00848153
0.00862269
0.0106712
0.00960347
0.0184482
0.016765
0.01851
0.019777
0.014412
0.0133599
0.0206694
0.0206317
0.0161005
0.0158654
0.0160498
0.015826
0.0161687
0.0161289
0.0160849
0.0158436
0.0161641
0.0158925
0.0162046
0.0163372
0.016025
0.0160171
0.0156816
0.0157328
0.0161673
0.0163839
0.015985
0.0162629
0.0162696
0.0159735
0.0164483
0.0161489
0.0164915
0.0167106
0.0167719
0.0164851
0.0172476
0.0169865
0.0170805
0.0175895
0.0166108
0.0169219
0.0165447
0.0170257
0.0174484
0.0180937
0.0178778
0.0187844
0.0152976
0.0154616
0.0150194
0.0152298
0.0157123
0.0157032
0.0150011
0.0141434
0.0151115
0.0154974
0.0155987
0.0167249
0.0152197
0.0147364
0.0180419
0.0190407
0.0158135
0.0167026
0.0144302
0.0168736
0.0184324
0.0198827
0.0204707
0.0226352
0.0162997
0.0192235
0.0202467
0.0205364
0.0223831
0.0249166
0.0200721
0.0213092
0.0178656
0.0176304
0.0185806
0.0183629
0.0182212
0.018936
0.0193425
0.0191376
0.0201072
0.0199155
0.0196824
0.0204164
0.0187863
0.0195102
0.0195649
0.0202989
0.0202211
0.0208865
0.0209556
0.0215088
0.0208432
0.0206719
0.0215439
0.0214017
0.0211086
0.0217587
0.0222035
0.0221024
0.0228245
0.022763
0.0223615
0.0229202
0.0214954
0.0220638
0.0219912
0.0224475
0.0225897
0.0230789
0.0228798
0.0232959
0.0206206
0.0212279
0.0226345