# vtk DataFile Version 2.0
Gerris simulation version 1.3.2 (131206-155120)
ASCII
DATASET UNSTRUCTURED_GRID

POINTS 1089 float
-0.5 0.46875 0
-0.46875 0.46875 0
-0.5 0.5 0
-0.46875 0.5 0
-0.4375 0.46875 0
-0.4375 0.5 0
-0.5 0.4375 0
-0.46875 0.4375 0
-0.4375 0.4375 0
-0.40625 0.46875 0
-0.40625 0.5 0
-0.375 0.46875 0
-0.375 0.5 0
-0.40625 0.4375 0
-0.375 0.4375 0
-0.5 0.40625 0
-0.46875 0.40625 0
-0.4375 0.40625 0
-0.5 0.375 0
-0.46875 0.375 0
-0.4375 0.375 0
-0.40625 0.40625 0
-0.375 0.40625 0
-0.40625 0.375 0
-0.375 0.375 0
-0.34375 0.46875 0
-0.34375 0.5 0
-0.3125 0.46875 0
-0.3125 0.5 0
-0.34375 0.4375 0
-0.3125 0.4375 0
-0.28125 0.46875 0
-0.28125 0.5 0
-0.25 0.46875 0
-0.25 0.5 0
-0.28125 0.4375 0
-0.25 0.4375 0
-0.34375 0.40625 0
-0.3125 0.40625 0
-0.34375 0.375 0
-0.3125 0.375 0
-0.28125 0.40625 0
-0.25 0.40625 0
-0.28125 0.375 0
-0.25 0.375 0
-0.5 0.34375 0
-0.46875 0.34375 0
-0.4375 0.34375 0
-0.5 0.3125 0
-0.46875 0.3125 0
-0.4375 0.3125 0
-0.40625 0.34375 0
-0.375 0.34375 0
-0.40625 0.3125 0
-0.375 0.3125 0
-0.5 0.28125 0
-0.46875 0.28125 0
-0.4375 0.28125 0
-0.5 0.25 0
-0.46875 0.25 0
-0.4375 0.25 0
-0.40625 0.28125 0
-0.375 0.28125 0
-0.40625 0.25 0
-0.375 0.25 0
-0.34375 0.34375 0
-0.3125 0.34375 0
-0.34375 0.3125 0
-0.3125 0.3125 0
-0.28125 0.34375 0
-0.25 0.34375 0
-0.28125 0.3125 0
-0.25 0.3125 0
-0.34375 0.28125 0
-0.3125 0.28125 0
-0.34375 0.25 0
-0.3125 0.25 0
-0.28125 0.28125 0
-0.25 0.28125 0
-0.28125 0.25 0
-0.25 0.25 0
-0.21875 0.46875 0
-0.21875 0.5 0
-0.1875 0.46875 0
-0.1875 0.5 0
-0.21875 0.4375 0
-0.1875 0.4375 0
-0.15625 0.46875 0
-0.15625 0.5 0
-0.125 0.46875 0
-0.125 0.5 0
-0.15625 0.4375 0
-0.125 0.4375 0
-0.21875 0.40625 0
-0.1875 0.40625 0
-0.21875 0.375 0
-0.1875 0.375 0
-0.15625 0.40625 0
-0.125 0.40625 0
-0.15625 0.375 0
-0.125 0.375 0
-0.09375 0.46875 0
-0.09375 0.5 0
-0.0625 0.46875 0
-0.0625 0.5 0
-0.09375 0.4375 0
-0.0625 0.4375 0
-0.03125 0.46875 0
-0.03125 0.5 0
0 0.46875 0
0 0.5 0
-0.03125 0.4375 0
0 0.4375 0
-0.09375 0.40625 0
-0.0625 0.40625 0
-0.09375 0.375 0
-0.0625 0.375 0
-0.03125 0.40625 0
0 0.40625 0
-0.03125 0.375 0
0 0.375 0
-0.21875 0.34375 0
-0.1875 0.34375 0
-0.21875 0.3125 0
-0.1875 0.3125 0
-0.15625 0.34375 0
-0.125 0.34375 0
-0.15625 0.3125 0
-0.125 0.3125 0
-0.21875 0.28125 0
-0.1875 0.28125 0
-0.21875 0.25 0
-0.1875 0.25 0
-0.15625 0.28125 0
-0.125 0.28125 0
-0.15625 0.25 0
-0.125 0.25 0
-0.09375 0.34375 0
-0.0625 0.34375 0
-0.09375 0.3125 0
-0.0625 0.3125 0
-0.03125 0.34375 0
0 0.34375 0
-0.03125 0.3125 0
0 0.3125 0
-0.09375 0.28125 0
-0.0625 0.28125 0
-0.09375 0.25 0
-0.0625 0.25 0
-0.03125 0.28125 0
0 0.28125 0
-0.03125 0.25 0
0 0.25 0
-0.5 0.21875 0
-0.46875 0.21875 0
-0.4375 0.21875 0
-0.5 0.1875 0
-0.46875 0.1875 0
-0.4375 0.1875 0
-0.40625 0.21875 0
-0.375 0.21875 0
-0.40625 0.1875 0
-0.375 0.1875 0
-0.5 0.15625 0
-0.46875 0.15625 0
-0.4375 0.15625 0
-0.5 0.125 0
-0.46875 0.125 0
-0.4375 0.125 0
-0.40625 0.15625 0
-0.375 0.15625 0
-0.40625 0.125 0
-0.375 0.125 0
-0.34375 0.21875 0
-0.3125 0.21875 0
-0.34375 0.1875 0
-0.3125 0.1875 0
-0.28125 0.21875 0
-0.25 0.21875 0
-0.28125 0.1875 0
-0.25 0.1875 0
-0.34375 0.15625 0
-0.3125 0.15625 0
-0.34375 0.125 0
-0.3125 0.125 0
-0.28125 0.15625 0
-0.25 0.15625 0
-0.28125 0.125 0
-0.25 0.125 0
-0.5 0.09375 0
-0.46875 0.09375 0
-0.4375 0.09375 0
-0.5 0.0625 0
-0.46875 0.0625 0
-0.4375 0.0625 0
-0.40625 0.09375 0
-0.375 0.09375 0
-0.40625 0.0625 0
-0.375 0.0625 0
-0.5 0.03125 0
-0.46875 0.03125 0
-0.4375 0.03125 0
-0.5 0 0
-0.46875 0 0
-0.4375 0 0
-0.40625 0.03125 0
-0.375 0.03125 0
-0.40625 0 0
-0.375 0 0
-0.34375 0.09375 0
-0.3125 0.09375 0
-0.34375 0.0625 0
-0.3125 0.0625 0
-0.28125 0.09375 0
-0.25 0.09375 0
-0.28125 0.0625 0
-0.25 0.0625 0
-0.34375 0.03125 0
-0.3125 0.03125 0
-0.34375 0 0
-0.3125 0 0
-0.28125 0.03125 0
-0.25 0.03125 0
-0.28125 0 0
-0.25 0 0
-0.21875 0.21875 0
-0.1875 0.21875 0
-0.21875 0.1875 0
-0.1875 0.1875 0
-0.15625 0.21875 0
-0.125 0.21875 0
-0.15625 0.1875 0
-0.125 0.1875 0
-0.21875 0.15625 0
-0.1875 0.15625 0
-0.21875 0.125 0
-0.1875 0.125 0
-0.15625 0.15625 0
-0.125 0.15625 0
-0.15625 0.125 0
-0.125 0.125 0
-0.09375 0.21875 0
-0.0625 0.21875 0
-0.09375 0.1875 0
-0.0625 0.1875 0
-0.03125 0.21875 0
0 0.21875 0
-0.03125 0.1875 0
0 0.1875 0
-0.09375 0.15625 0
-0.0625 0.15625 0
-0.09375 0.125 0
-0.0625 0.125 0
-0.03125 0.15625 0
0 0.15625 0
-0.03125 0.125 0
0 0.125 0
-0.21875 0.09375 0
-0.1875 0.09375 0
-0.21875 0.0625 0
-0.1875 0.0625 0
-0.15625 0.09375 0
-0.125 0.09375 0
-0.15625 0.0625 0
-0.125 0.0625 0
-0.21875 0.03125 0
-0.1875 0.03125 0
-0.21875 0 0
-0.1875 0 0
-0.15625 0.03125 0
-0.125 0.03125 0
-0.15625 0 0
-0.125 0 0
-0.09375 0.09375 0
-0.0625 0.09375 0
-0.09375 0.0625 0
-0.0625 0.0625 0
-0.03125 0.09375 0
0 0.09375 0
-0.03125 0.0625 0
0 0.0625 0
-0.09375 0.03125 0
-0.0625 0.03125 0
-0.09375 0 0
-0.0625 0 0
-0.03125 0.03125 0
0 0.03125 0
-0.03125 0 0
0 0 0
0.03125 0.46875 0
0.03125 0.5 0
0.0625 0.46875 0
0.0625 0.5 0
0.03125 0.4375 0
0.0625 0.4375 0
0.09375 0.46875 0
0.09375 0.5 0
0.125 0.46875 0
0.125 0.5 0
0.09375 0.4375 0
0.125 0.4375 0
0.03125 0.40625 0
0.0625 0.40625 0
0.03125 0.375 0
0.0625 0.375 0
0.09375 0.40625 0
0.125 0.40625 0
0.09375 0.375 0
0.125 0.375 0
0.15625 0.46875 0
0.15625 0.5 0
0.1875 0.46875 0
0.1875 0.5 0
0.15625 0.4375 0
0.1875 0.4375 0
0.21875 0.46875 0
0.21875 0.5 0
0.25 0.46875 0
0.25 0.5 0
0.21875 0.4375 0
0.25 0.4375 0
0.15625 0.40625 0
0.1875 0.40625 0
0.15625 0.375 0
0.1875 0.375 0
0.21875 0.40625 0
0.25 0.40625 0
0.21875 0.375 0
0.25 0.375 0
0.03125 0.34375 0
0.0625 0.34375 0
0.03125 0.3125 0
0.0625 0.3125 0
0.09375 0.34375 0
0.125 0.34375 0
0.09375 0.3125 0
0.125 0.3125 0
0.03125 0.28125 0
0.0625 0.28125 0
0.03125 0.25 0
0.0625 0.25 0
0.09375 0.28125 0
0.125 0.28125 0
0.09375 0.25 0
0.125 0.25 0
0.15625 0.34375 0
0.1875 0.34375 0
0.15625 0.3125 0
0.1875 0.3125 0
0.21875 0.34375 0
0.25 0.34375 0
0.21875 0.3125 0
0.25 0.3125 0
0.15625 0.28125 0
0.1875 0.28125 0
0.15625 0.25 0
0.1875 0.25 0
0.21875 0.28125 0
0.25 0.28125 0
0.21875 0.25 0
0.25 0.25 0
0.28125 0.46875 0
0.28125 0.5 0
0.3125 0.46875 0
0.3125 0.5 0
0.28125 0.4375 0
0.3125 0.4375 0
0.34375 0.46875 0
0.34375 0.5 0
0.375 0.46875 0
0.375 0.5 0
0.34375 0.4375 0
0.375 0.4375 0
0.28125 0.40625 0
0.3125 0.40625 0
0.28125 0.375 0
0.3125 0.375 0
0.34375 0.40625 0
0.375 0.40625 0
0.34375 0.375 0
0.375 0.375 0
0.40625 0.46875 0
0.40625 0.5 0
0.4375 0.46875 0
0.4375 0.5 0
0.40625 0.4375 0
0.4375 0.4375 0
0.46875 0.46875 0
0.46875 0.5 0
0.5 0.46875 0
0.5 0.5 0
0.46875 0.4375 0
0.5 0.4375 0
0.40625 0.40625 0
0.4375 0.40625 0
0.40625 0.375 0
0.4375 0.375 0
0.46875 0.40625 0
0.5 0.40625 0
0.46875 0.375 0
0.5 0.375 0
0.28125 0.34375 0
0.3125 0.34375 0
0.28125 0.3125 0
0.3125 0.3125 0
0.34375 0.34375 0
0.375 0.34375 0
0.34375 0.3125 0
0.375 0.3125 0
0.28125 0.28125 0
0.3125 0.28125 0
0.28125 0.25 0
0.3125 0.25 0
0.34375 0.28125 0
0.375 0.28125 0
0.34375 0.25 0
0.375 0.25 0
0.40625 0.34375 0
0.4375 0.34375 0
0.40625 0.3125 0
0.4375 0.3125 0
0.46875 0.34375 0
0.5 0.34375 0
0.46875 0.3125 0
0.5 0.3125 0
0.40625 0.28125 0
0.4375 0.28125 0
0.40625 0.25 0
0.4375 0.25 0
0.46875 0.28125 0
0.5 0.28125 0
0.46875 0.25 0
0.5 0.25 0
0.03125 0.21875 0
0.0625 0.21875 0
0.03125 0.1875 0
0.0625 0.1875 0
0.09375 0.21875 0
0.125 0.21875 0
0.09375 0.1875 0
0.125 0.1875 0
0.03125 0.15625 0
0.0625 0.15625 0
0.03125 0.125 0
0.0625 0.125 0
0.09375 0.15625 0
0.125 0.15625 0
0.09375 0.125 0
0.125 0.125 0
0.15625 0.21875 0
0.1875 0.21875 0
0.15625 0.1875 0
0.1875 0.1875 0
0.21875 0.21875 0
0.25 0.21875 0
0.21875 0.1875 0
0.25 0.1875 0
0.15625 0.15625 0
0.1875 0.15625 0
0.15625 0.125 0
0.1875 0.125 0
0.21875 0.15625 0
0.25 0.15625 0
0.21875 0.125 0
0.25 0.125 0
0.03125 0.09375 0
0.0625 0.09375 0
0.03125 0.0625 0
0.0625 0.0625 0
0.09375 0.09375 0
0.125 0.09375 0
0.09375 0.0625 0
0.125 0.0625 0
0.03125 0.03125 0
0.0625 0.03125 0
0.03125 0 0
0.0625 0 0
0.09375 0.03125 0
0.125 0.03125 0
0.09375 0 0
0.125 0 0
0.15625 0.09375 0
0.1875 0.09375 0
0.15625 0.0625 0
0.1875 0.0625 0
0.21875 0.09375 0
0.25 0.09375 0
0.21875 0.0625 0
0.25 0.0625 0
0.15625 0.03125 0
0.1875 0.03125 0
0.15625 0 0
0.1875 0 0
0.21875 0.03125 0
0.25 0.03125 0
0.21875 0 0
0.25 0 0
0.28125 0.21875 0
0.3125 0.21875 0
0.28125 0.1875 0
0.3125 0.1875 0
0.34375 0.21875 0
0.375 0.21875 0
0.34375 0.1875 0
0.375 0.1875 0
0.28125 0.15625 0
0.3125 0.15625 0
0.28125 0.125 0
0.3125 0.125 0
0.34375 0.15625 0
0.375 0.15625 0
0.34375 0.125 0
0.375 0.125 0
0.40625 0.21875 0
0.4375 0.21875 0
0.40625 0.1875 0
0.4375 0.1875 0
0.46875 0.21875 0
0.5 0.21875 0
0.46875 0.1875 0
0.5 0.1875 0
0.40625 0.15625 0
0.4375 0.15625 0
0.40625 0.125 0
0.4375 0.125 0
0.46875 0.15625 0
0.5 0.15625 0
0.46875 0.125 0
0.5 0.125 0
0.28125 0.09375 0
0.3125 0.09375 0
0.28125 0.0625 0
0.3125 0.0625 0
0.34375 0.09375 0
0.375 0.09375 0
0.34375 0.0625 0
0.375 0.0625 0
0.28125 0.03125 0
0.3125 0.03125 0
0.28125 0 0
0.3125 0 0
0.34375 0.03125 0
0.375 0.03125 0
0.34375 0 0
0.375 0 0
0.40625 0.09375 0
0.4375 0.09375 0
0.40625 0.0625 0
0.4375 0.0625 0
0.46875 0.09375 0
0.5 0.09375 0
0.46875 0.0625 0
0.5 0.0625 0
0.40625 0.03125 0
0.4375 0.03125 0
0.40625 0 0
0.4375 0 0
0.46875 0.03125 0
0.5 0.03125 0
0.46875 0 0
0.5 0 0
-0.5 -0.03125 0
-0.46875 -0.03125 0
-0.4375 -0.03125 0
-0.5 -0.0625 0
-0.46875 -0.0625 0
-0.4375 -0.0625 0
-0.40625 -0.03125 0
-0.375 -0.03125 0
-0.40625 -0.0625 0
-0.375 -0.0625 0
-0.5 -0.09375 0
-0.46875 -0.09375 0
-0.4375 -0.09375 0
-0.5 -0.125 0
-0.46875 -0.125 0
-0.4375 -0.125 0
-0.40625 -0.09375 0
-0.375 -0.09375 0
-0.40625 -0.125 0
-0.375 -0.125 0
-0.34375 -0.03125 0
-0.3125 -0.03125 0
-0.34375 -0.0625 0
-0.3125 -0.0625 0
-0.28125 -0.03125 0
-0.25 -0.03125 0
-0.28125 -0.0625 0
-0.25 -0.0625 0
-0.34375 -0.09375 0
-0.3125 -0.09375 0
-0.34375 -0.125 0
-0.3125 -0.125 0
-0.28125 -0.09375 0
-0.25 -0.09375 0
-0.28125 -0.125 0
-0.25 -0.125 0
-0.5 -0.15625 0
-0.46875 -0.15625 0
-0.4375 -0.15625 0
-0.5 -0.1875 0
-0.46875 -0.1875 0
-0.4375 -0.1875 0
-0.40625 -0.15625 0
-0.375 -0.15625 0
[...]
POINT_DATA 1089
SCALARS T float
LOOKUP_TABLE default
0
0
0
0
0
0
0
0
0
0
0
0
0
0
0
0
0
0
0
0
0
0
0
0
0
0
0
0
0
0
0
0
0
0
0
0
0
0
0
0
0
0
0
0
0
0
0
0
0
0
0
0
0
0
0
0
0
0
0
0
0
0
0
0
0
0
0
0
0
0
0
0
0
0
0
0
0
0
0
0
0
0
0
0
0
0
0
0
0
0
0
0
0
0
0
0
0
0
0
0
0
0
0
0
0
0
0
0
0
0
0
0
0
0
0
0
0
0
0
0
0
0
0
0
0
0
0
0
0
0
0
0
0
0
0
0
0
0
0
0
0
0
0
0
0
0
0
0
0
0
0
0
0
0
0
0
0
0
0
0
0
0
0
0
0
0
0
0
0
0
0
0
0
0
0
0
0
0
0
0
0
0
0
0
0
0
0
0
0
0
0
0
0
0
0
0
0
0
0
0
0
0
0
0
0
0
0
0
0.0286415
0
0
0
0
0
0
0
0
0
0.00549765
0.18738
0.402505
0.0455976
0.101741
0.533867
0.601741
0
0
0
0
0
0
0
0
0
0
0
0
0
0
0
0
0
0
0
0
0
0
0
0
0
0
0
0
0
0
0
0
0
0
0
0
0
0
0
0
0.124999
0.108381
0.624999
0.608381
0.0542029
0.0091796
0.548393
0.433353
0
0
0
0
0
0
0
0
0
0
0.24239
0.062406
0
0
0
0
0
0
0
0
0
0
0
0
0
0
0
0
0
0
0
0
0
0
0
0
0
0
0
0
0
0
0
0
0
0
0
0
0
0
0
0
0
0
0
0
0
0
0
0
0
0
0
0
0
0
0.00258858
0.111494
0
0
0.322069
0.44876
0
0
0
0
0
0
0
0
0
0
0.424825
0.253263
0
0
0.064034
0
0
0
0
0
0
0
0
0
0
0
0
0
0
0
0
0
0
0
0
0
0
0
0
0
0
0
0
0
0
0
0
0
0
0
0
0
0
0
0
0
0
0
0
0
0
0
0
0
0
0
0
0
0
0
0
0
0
0
0
0
0
0
0
0
0
0
0
0
0
0
0
0
0.0996909
0.458596
0.255045
0.755045
0.822069
0.94876
1
1
0.25806
0.75806
0.104325
0.486059
1
1
0.871249
0.989515
0.924825
0.74475
1
0.991488
0.359897
0.0543751
0.677608
0.186121
1
1
0.994938
0.896274
0.72701
0.22701
0.501227
0.0998907
0.00420806
0.135942
0
0
0.377529
0.529012
0.00627956
0.0394972
0
0
0
0
0
0
0.000186677
0.000187223
0.543975
0.412094
0.0490371
0.0158194
0.155963
0.00462668
0
0
0
0
5.46678e-07
0
0
0
0
0
0
0
0
0
0
0
0
0
0
0
0
0
0
0
0
0
0
0
0
0
0
0
0
0
0
0
0
0
0
0
0
0
0
0
0
0
0
0
0
0
0
0
0
0
0
0
0
0
0
0
0
0
0
0
0
0
0
0
0
0
0
0
0
0
0
0
0
0
0
0
0.0368961
0.295571
0.191202
0.671235
0
0
0
0
0
0
0.369402
0.869402
0.444864
0.944864
0.667413
0.897008
0.980033
1
0.988269
1
1
1
1
1
1
1
1
1
1
1
0
0
0
0
0
0
0.429687
0.929687
0.309053
0.809053
0
0
0
0
0
0
0.110652
0.5263
0.00151766
0.168528
1
1
1
1
1
1
1
1
0.915648
1
0.495437
0.747833
1
1
0.890628
0.966902
1
1
1
1
0.99419
0.924174
1
1
1
1
1
1
1
1
1
1
0.741231
0.425634
0.998841
0.855358
0.114386
0
0.384947
0.0284307
1
0.99213
1
1
0.61696
0.124831
0.709647
0.209647
1
1
1
1
1
1
1
1
1
1
0.992468
0.971833
1
1
0.903867
0.782472
1
1
1
0.976548
0.696425
0.196425
0.576219
0.0996709
0.976028
0.765862
0.59282
0.302454
0.306327
0.0164935
0.063286
0
0
0
0
0
0
0
0
0.00136262
0
0
0
0
0
0
0
0
0
0
0
0
0.0797892
0.247833
0
0
0.390628
0.46712
0
0.000217429
0
0
0
0
0
0
0
0
0
0
0
0
0
0
0
0
0
0
0
0
0
0
0
0
0
0
0
0
0
0
0
0
0
0
0
0
0
0
0
0
0
0
0
0
0.492925
0.472073
0.000457467
0.000240039
0.403867
0.282472
0
0
0
0
0
0
0
0
0
0
0.116792
0.0131402
0
0
0
0
0
0
0
0
0
0
0
0
0
0
0
0
0
0
0
0
0
0
0
0
0
0
0
0
0
0
0
0
0
0
0
0
0
0
0
0
0
0
0
0
0
0
0
0.0149529
0
0.141443
0.189352
0.402489
0.565655
0.902302
0
0.226533
0
0.106215
0.726533
1
0.491061
0.877406
0.373088
0.14757
0.872853
0.461318
0.00257297
0
0.0665551
0
0.999766
0.633188
0.914372
0.491251
0.133422
0
0.0694398
0
0
0.00617127
0
0
0.141017
0.381839
0
0.00443371
0
0
0
0
0
0
0
0
0.452807
0.205813
0.0384353
0.0340016
0
0
0
0
0
0
0
0
0
0
0
0
0
0
0
0
0
0
0
0
0
0
0
0
0
0
0
0
0
0
0
0
0
0
0
0
0
0
0
0
0
0
0
0
0
0
0
0
0
0
0
0
0
0
0
0
0
0
0
0
0
0
0
0
0
0
0
0
0
0
0
0
0
0
0
0
0
0
0
0
0
0
0
0
0
0
0
0
0
0
0
0
0
0
0
0
0
0
0
0
0
0
0
0
0
0
0
0
0
0
0
0
0
0
0
0
0
0
0
0
0
0
0
0
0
0
0
0
0
0
0
0
0
0
0
0
0
0
0
0
0
0
0
0
0
0
0
0
0
0
0
0
0
0
0
0
0
0
0
0
0
0
0
0
0
0
0
0
0
0
0
0
0
0
0
0
0
0
0
0
0
0
0
0
0
0
0
0
0
0
0
0
0
0
0
0
0
0
0
0
0
0
0
0

SCALARS P float
LOOKUP_TABLE default
-0.010477
-0.0103632
-0.0105036
-0.0103891
-0.0101683
-0.010179
-0.0104834
-0.0103646
-0.0101777
-0.00990243
-0.0098802
-0.00957724
-0.0095003
-0.00993351
-0.00964543
-0.0105259
-0.0103952
-0.0102065
-0.0106084
-0.0104562
-0.0102542
-0.00997072
-0.00970194
-0.0100125
-0.00974565
-0.00921254
-0.00905799
-0.00883992
-0.00859246
-0.00933265
-0.00902172
-0.00850073
-0.00816372
-0.0082344
-0.00782766
-0.00874384
-0.00852802
-0.00941886
-0.0091453
-0.00947248
-0.00921566
-0.00890707
-0.00872675
-0.0089987
-0.0088408
-0.0107337
-0.0105485
-0.0103201
-0.0109023
-0.0106719
-0.0104038
-0.0100574
-0.0097752
-0.0101047
-0.00978896
-0.0111128
-0.0108266
-0.0105066
-0.0113635
-0.0110126
-0.0106306
-0.0101559
-0.00978706
-0.0102135
-0.00977032
-0.00949248
-0.00923244
-0.00947575
-0.00919067
-0.00901903
-0.008871
-0.0089614
-0.00880926
-0.00941934
-0.00908332
-0.00931893
-0.00889874
-0.00881488
-0.0086414
-0.00856088
-0.0083422
-0.00806408
-0.00761496
-0.00800346
-0.00754763
-0.00839147
-0.00834165
-0.00804492
-0.00761787
-0.00816607
-0.00779862
-0.00837012
-0.00845713
-0.00861728
-0.00858171
-0.00875265
-0.00873495
-0.00861097
-0.0086867
-0.0087792
-0.00886829
-0.00833446
-0.00804959
-0.00851129
-0.00831718
-0.00857562
-0.00869536
-0.00866122
-0.00855121
-0.00876199
-0.00872333
-0.00878714
-0.00883149
-0.00878509
-0.00887694
-0.00897758
-0.00907398
-0.00893372
-0.00893253
-0.00912322
-0.00908786
-0.00879912
-0.00880418
-0.00874824
-0.00878225
-0.00887984
-0.00900869
-0.00890851
-0.00911093
-0.008584
-0.008653
-0.00827547
-0.00838187
-0.00885281
-0.00917118
-0.00867406
-0.00914215
-0.00916321
-0.00930037
-0.00935897
-0.00959682
-0.00937125
-0.00930943
-0.00976286
-0.0097421
-0.00957794
-0.010014
-0.00976203
-0.0104773
-0.0104066
-0.0105602
-0.0112315
-0.0118771
-0.0116432
-0.0112274
-0.0107795
-0.0119499
-0.0114745
-0.0109648
-0.0102845
-0.00974569
-0.0103875
-0.0097337
-0.0122624
-0.011753
-0.011203
-0.0125702
-0.0120728
-0.0115179
-0.0105496
-0.00976479
-0.0108069
-0.00989177
-0.00917484
-0.00862649
-0.00899614
-0.0082566
-0.00817879
-0.00788062
-0.00764152
-0.0072128
-0.00879764
-0.00777716
-0.00861541
-0.00718805
-0.00691606
-0.00628276
-0.00597695
-0.00503171
-0.0128737
-0.0124256
-0.011914
-0.0132001
-0.0128608
-0.0125084
-0.0112173
-0.0102352
-0.0120098
-0.0111063
-0.0135095
-0.0133624
-0.0133281
-0.0138628
-0.0140583
-0.0146286
-0.0133902
-0.0129225
-0.0161384
-0.0148876
-0.00856649
-0.00655278
-0.0088552
-0.00586343
-0.00482341
-0.00338371
-0.00330948
-0.00109755
-0.00998671
-0.00541023
-0.0026685
0.0127729
-0.000464595
0.00416835
0.0205822
0.023629
-0.0077851
-0.00792897
-0.00705663
-0.00722836
-0.00833404
-0.00899408
-0.00775231
-0.00860791
-0.00601819
-0.00620219
-0.00459518
-0.00479128
-0.00683837
-0.00785038
-0.0055687
-0.00674747
-0.00990853
-0.0110551
-0.00981973
-0.0113731
-0.0125499
-0.0145855
-0.0135965
-0.016902
-0.00924073
-0.0109431
-0.00827527
-0.00997216
-0.0131563
-0.016309
-0.0116612
-0.0135858
-0.00269358
-0.00295573
-3.14653e-05
-0.000456881
-0.00398924
-0.00544501
-0.00195537
-0.00392533
0.00612901
0.00514499
0.0244839
0.024017
0.00172764
-0.00215563
0.0217147
0.0161207
-0.00725006
-0.00904202
-0.00638667
-0.00870677
-0.0103347
-0.01102
-0.010009
-0.0102394
-0.00588768
-0.00925564
0.004712
-0.00825893
-0.0108287
-0.0108326
-0.0133886
-0.0124053
-0.00880539
-0.00882628
-0.00879399
-0.00887066
-0.00881664
-0.00873037
-0.00874123
-0.00887274
-0.0087128
-0.00887764
-0.00857997
-0.00847906
-0.00885252
-0.00865393
-0.0089351
-0.008563
-0.00833121
-0.00810152
-0.00793702
-0.00747451
-0.00874186
-0.008914
-0.00885941
-0.00900796
-0.00848002
-0.00862935
-0.00905997
-0.0091611
-0.00929875
-0.00935106
-0.00890734
-0.00922433
-0.00805961
-0.00826907
-0.00736678
-0.00769352
-0.00868403
-0.00913299
-0.00836115
-0.00904229
-0.00906718
-0.00842004
-0.00948582
-0.00847544
-0.0073021
-0.00647912
-0.00641134
-0.00476677
-0.0103721
-0.008679
-0.0120729
0.00217109
-0.00511986
-0.00235401
0.0276928
0.0410541
-0.0063313
-0.00689583
-0.00457939
-0.00564953
-0.00799612
-0.00905381
-0.00754161
-0.00924896
-0.00220486
-0.00407059
0.038118
0.0202633
-0.00727462
-0.00994932
-0.00166891
-0.0114749
-0.00955953
-0.00957061
-0.0098097
-0.00979532
-0.00955107
-0.00984211
-0.0100395
-0.0100133
-0.0102333
-0.0102082
-0.0100946
-0.0102928
-0.00956202
-0.00991339
-0.00962484
-0.0100583
-0.0101996
-0.0104043
-0.010385
-0.0105908
-0.0103819
-0.010367
-0.0104774
-0.0104773
-0.0104335
-0.0105141
-0.0105121
-0.0105274
-0.010477
-0.010502
-0.010532
-0.0104834
-0.0105354
-0.0105974
-0.0107039
-0.0107382
-0.0105937
-0.0105259
-0.0107041
-0.0106084
-0.00982331
-0.0103403
-0.0102404
-0.0108249
-0.0106947
-0.01088
-0.0111694
-0.0112928
-0.0110169
-0.0115644
-0.0124339
-0.0127366
-0.0118214
-0.011827
-0.0127465
-0.0125263
-0.0109563
-0.0109466
-0.0113022
-0.0112267
-0.0108689
-0.0107337
-0.0110895
-0.0109023
-0.0117369
-0.011574
-0.012276
-0.0119914
-0.0113631
-0.0111128
-0.0116879
-0.0113635
-0.00139663
0.0443885
0.0197951
0.0858219
0.08419
0.0935983
0.109772
0.105316
0.0207017
0.0854537
0.000496625
0.0475506
0.108473
0.104955
0.0882988
0.0979881
0.0899451
0.0727435
0.104653
0.105994
0.0291997
-0.00859476
0.0695119
0.0060337
0.105639
0.109913
0.0999094
0.0928366
0.0792916
0.0118704
0.046583
-0.00574447
-0.01046
0.00667678
-0.00975714
-0.00739158
0.0346981
0.0493885
-0.00284826
0.00203392
-0.010263
-0.00883572
-0.0114102
-0.0105743
-0.00614595
-0.00399726
-0.00854375
-0.00661443
0.0502412
0.0353014
0.000764341
-0.00728917
0.00302232
-0.0166501
-0.0132164
-0.0150232
-0.00573102
-0.0101857
-0.00863078
-0.0124104
-0.0133695
-0.0148379
-0.0142711
-0.0151557
-0.0148695
-0.0142379
-0.0185269
-0.0163686
-0.0137956
-0.013279
-0.0150909
-0.0141531
-0.020345
-0.0176533
-0.0189547
-0.0171342
-0.0159251
-0.0147844
-0.0158066
-0.0148785
-0.0128461
-0.0124353
-0.0134654
-0.0129051
-0.0120399
-0.0116432
-0.0124138
-0.0119499
-0.0139495
-0.0133048
-0.0141451
-0.0135542
-0.0127606
-0.0122624
-0.0130412
-0.0125702
-0.016618
-0.0160875
-0.0154866
-0.0155133
-0.015378
-0.0147628
-0.0151232
-0.0146824
-0.0153381
-0.0153167
-0.015484
-0.0152921
-0.0150053
-0.0146238
-0.0149431
-0.0145543
-0.0142007
-0.0137145
-0.0142362
-0.0138457
-0.0132749
-0.0128737
-0.0134943
-0.0132001
-0.0142429
-0.0139298
-0.0142077
-0.0139731
-0.0136682
-0.0135095
-0.0138265
-0.0138628
-0.014152
-0.0148779
-0.0165268
-0.0140211
-0.0148242
-0.0167872
-0.0174234
0.00136916
-0.00579272
0.0299296
-0.0132336
-0.0132306
-0.0140677
-0.0125068
-0.011968
-0.0121029
0.0107311
0.0450135
0.0172432
0.0495585
0.0282886
0.0400212
0.052104
0.0494714
0.0428178
0.0412843
0.0467222
0.0445985
0.0522795
0.0499335
0.0515109
0.0502844
0.0480141
0.0465046
0.0487211
0.0474167
-0.0125509
-0.0124589
-0.0131007
-0.0129587
-0.0137313
-0.0155184
0.0159928
0.0489532
0.00555891
0.0401681
-0.0130861
-0.0142334
-0.0163381
-0.0127697
-0.0136261
-0.0148595
-0.0111954
0.017328
-0.0176063
-0.00715754
0.0516215
0.0502662
0.0516341
0.0495769
0.0485831
0.0473008
0.0474784
0.0461254
0.0445474
0.0481099
0.0163008
0.0314839
0.0455896
0.0440573
0.0371931
0.0390201
0.0401902
0.0406624
0.0435738
0.0439499
0.0416685
0.0398633
0.0453304
0.0473213
0.0457948
0.0461104
0.0468054
0.0471161
0.0473292
0.0492669
0.0483362
0.0503073
0.0321703
0.0126273
0.0500136
0.0421486
-0.00921665
-0.015311
0.00870568
-0.015677
0.0517897
0.0537768
0.0526394
0.0548309
0.0279132
-0.00692619
0.0367474
0.00368521
0.0466934
0.0469586
0.0454758
0.0456994
0.0481324
0.0501361
0.0468921
0.0491844
0.0432114
0.0432843
0.0391727
0.0383596
0.0443563
0.0465016
0.0364735
0.0325085
0.0525322
0.0550852
0.052415
0.0544495
0.0362016
0.00280421
0.0258064
-0.00897487
0.0482928
0.0363281
0.0238941
0.00432955
0.00291392
-0.0166166
-0.0131289
-0.0151596
-0.0123297
-0.0128443
-0.0133598
-0.0118857
-0.0121597
-0.0122947
-0.0142476
-0.0142862
-0.012326
-0.0117232
-0.0114773
-0.0115769
-0.0114871
-0.0111341
-0.0111215
-0.0109196
-0.0111769
-0.0104156
-0.0105014
-0.00976005
-0.00751073
0.00508951
-0.0096385
-0.00588791
0.0142953
0.0182316
-0.00224585
-5.31668e-05
-0.00884464
-0.00637403
-0.00854498
-0.00690732
-0.00399526
-0.00243357
-0.00536043
-0.00425712
-0.0108692
-0.0107945
-0.010553
-0.0106834
-0.0105798
-0.0103365
-0.0101307
-0.00948333
-0.00995074
-0.00940686
-0.0105658
-0.010453
-0.0102246
-0.010502
-0.0103891
-0.010179
-0.00988389
-0.00943061
-0.0098802
-0.0095003
-0.00856097
-0.00742406
-0.00869873
-0.0078848
-0.00635945
-0.0055737
-0.0071255
-0.00654869
-0.00887715
-0.00827249
-0.00905799
-0.00859246
-0.00771194
-0.00727827
-0.00816372
-0.00782766
0.0194545
0.0186375
0.000977117
0.000934638
0.0156681
0.00958213
-0.000179057
-0.0022874
-0.0016111
-0.00160817
-0.00364631
-0.00361619
-0.00241923
-0.00387222
-0.00414297
-0.00510221
-0.000914289
-0.0101955
-0.00551953
-0.00888257
-0.0130639
-0.01259
-0.0106481
-0.0109481
-0.00591362
-0.00801475
-0.00641456
-0.0077716
-0.00935275
-0.00991918
-0.0087507
-0.00929724
-0.00511772
-0.00506286
-0.00620377
-0.00613978
-0.00539426
-0.00602888
-0.00634377
-0.00676154
-0.00701071
-0.00694229
-0.00761496
-0.00754763
-0.00706345
-0.00733795
-0.00761787
-0.00779862
-0.00688909
-0.00778713
-0.00732951
-0.00792858
-0.0084969
-0.00895806
-0.00843068
-0.00878621
-0.00771527
-0.00811728
-0.00804959
-0.00831718
-0.00846638
-0.00872397
-0.00855121
-0.00872333
-0.0133138
-0.0103385
-0.016447
0.0129101
0.0213504
0.0593874
0.0917417
0.149343
-0.0154759
0.0311253
-0.00892678
0.0147324
0.120961
0.165197
0.0790968
0.142984
0.0521873
0.0103726
0.142579
0.0658294
-0.0154587
-0.0158372
-0.00641187
-0.0168837
0.165689
0.0980527
0.146787
0.0645392
0.00812743
-0.014576
-0.00921271
-0.0168437
-0.00882255
-0.0039374
-0.013211
-0.0102382
0.0207934
0.0607635
-0.00589585
-0.00540699
-0.0135837
-0.0108649
-0.0126805
-0.0113137
-0.00752747
-0.00654423
-0.00954373
-0.00882791
0.0628079
0.0110007
-0.00492449
-0.00677038
-0.0196305
-0.0141073
-0.00929825
-0.00826336
-0.00492181
-0.00628916
-0.00774058
-0.0076544
-0.00961491
-0.0093416
-0.00838082
-0.00826809
-0.0157748
-0.015266
-0.0161331
-0.0152561
-0.0147973
-0.0143827
-0.0145663
-0.0140955
-0.014332
-0.0140772
-0.014553
-0.0136922
-0.0136807
-0.013444
-0.0130897
-0.0128641
-0.0140679
-0.013912
-0.0137927
-0.0136741
-0.0138812
-0.014152
-0.0136953
-0.0140211
-0.0132778
-0.0132083
-0.0127553
-0.01272
-0.0131841
-0.0132336
-0.0126569
-0.0125068
-0.0128604
-0.0123
-0.00981668
-0.0103541
-0.012098
-0.0121358
-0.0108901
-0.0113453
-0.00995759
-0.0101684
-0.00903579
-0.00952413
-0.0105657
-0.0109952
-0.0101013
-0.0106354
-0.0122458
-0.01239
-0.0117552
-0.0121394
-0.0124957
-0.0125509
-0.0125038
-0.0129587
-0.0114572
-0.0119278
-0.0111635
-0.0116695
-0.0124172
-0.0130861
-0.0121646
-0.0127697
-0.0117157
-0.0109931
-0.010758
-0.0104724
-0.00982416
-0.00901243
-0.00985323
-0.00933404
-0.0100519
-0.00999648
-0.00953347
-0.00959823
-0.00968007
-0.00935069
-0.00947524
-0.00930675
-0.00818154
-0.00816229
-0.00879695
-0.00864302
-0.00859188
-0.00860254
-0.00873368
-0.00875791
-0.00902136
-0.00891183
-0.00912968
-0.00906644
-0.00895115
-0.0090046
-0.00910014
-0.00917778
-0.0092045
-0.00931152
-0.00899923
-0.00910877
-0.00928719
-0.00921798
-0.00912965
-0.00911793
-0.00888507
-0.00897017
-0.00882628
-0.00887066
-0.00899632
-0.0090068
-0.00887274
-0.00887764
-0.0091438
-0.00913515
-0.00910774
-0.00914276
-0.00919298
-0.0092954
-0.00923019
-0.00935835
-0.00903106
-0.00909919
-0.008914
-0.00900796
-0.00921714
-0.00937248
-0.0091611
-0.00935106
-0.009086
-0.00947907
-0.00911329
-0.00946935
-0.00997925
-0.0104673
-0.00991477
-0.0103556
-0.00926244
-0.00955627
-0.00938784
-0.00964104
-0.00992314
-0.0102953
-0.00994705
-0.0102586
-0.0109585
-0.0114241
-0.0107923
-0.0111952
-0.0118613
-0.0123297
-0.0115538
-0.0118857
-0.0106612
-0.0109905
-0.0105586
-0.0108184
-0.0112659
-0.0114773
-0.0110179
-0.0111341
-0.00948288
-0.00970796
-0.00954303
-0.00975535
-0.00996781
-0.0102294
-0.00998659
-0.0102126
-0.00956743
-0.0097795
-0.00957061
-0.00979532
-0.00999742
-0.0102021
-0.0100133
-0.0102082
-0.0104745
-0.0106775
-0.0104162
-0.0105757
-0.0108178
-0.0108692
-0.0106728
-0.0106834
-0.0103781
-0.0105082
-0.010367
-0.0104773
-0.0105773
-0.0105658
-0.0105274
-0.0105036

SCALARS U float
LOOKUP_TABLE default
0.017134
0.0169987
0.0164399
0.0162897
0.0169933
0.0162685
0.0177244
0.0175788
0.0175544
0.0171564
0.0164498
0.0175155
0.0168889
0.0176747
0.0179518
0.0182218
0.0180404
0.0179765
0.0186235
0.0183882
0.0182726
0.0180436
0.0182457
0.0182842
0.0184219
0.0180779
0.0176168
0.0187976
0.018572
0.0183823
0.0189311
0.019589
0.0196169
0.0203622
0.0206046
0.0195413
0.0201533
0.0185739
0.0189991
0.0186737
0.0190126
0.0194795
0.0199708
0.0194022
0.0198053
0.0189214
0.0186193
0.0184456
0.0191012
0.018725
0.0184902
0.0184036
0.0184899
0.0183994
0.0184493
0.0191399
0.0186888
0.018393
0.0190154
0.018493
0.0181342
0.0182595
0.0182905
0.0179608
0.0179899
0.0186901
0.0189753
0.0186238
0.0188887
0.0193082
0.0196523
0.0191981
0.0195102
0.0184699
0.0187538
0.0182099
0.0185618
0.0190766
0.0193829
0.0189425
0.019268
0.0210664
0.0214678
0.0216917
0.0222183
0.020727
0.0212432
0.0222425
0.0228881
0.0227147
0.0234889
0.0216927
0.022063
0.0204394
0.0208635
0.0201922
0.0205422
0.0212276
0.0215149
0.0208366
0.0210547
0.0230815
0.0239803
0.0233041
0.0242975
0.0223348
0.0224819
0.023356
0.0243918
0.0232277
0.0242502
0.0224922
0.0223592
0.0217074
0.021781
0.0211697
0.0211422
0.021729
0.0215486
0.0209582
0.0206311
0.0199804
0.0202756
0.0198005
0.0200616
0.0205168
0.0206748
0.0202726
0.0203906
0.0196544
0.019905
0.0195335
0.0197977
0.0201252
0.0202685
0.0200961
0.0204252
0.0206927
0.02049
0.020307
0.0198734
0.0200194
0.0193409
0.018959
0.0176433
0.020172
0.0196076
0.020635
0.0205269
0.0182805
0.015945
0.0197559
0.0176643
0.0187233
0.0181262
0.0176896
0.0182817
0.0175818
0.0170176
0.0174653
0.0174997
0.0166867
0.0166858
0.0177777
0.0168665
0.016032
0.0172731
0.0159403
0.0145172
0.0154137
0.0151823
0.01313
0.0120611
0.0177965
0.0182784
0.0170616
0.0177362
0.0187752
0.0191485
0.0184331
0.0189119
0.015503
0.016395
0.0118269
0.0128686
0.0174442
0.0182291
0.0146307
0.0163553
0.0167672
0.0146949
0.0120567
0.0163083
0.0130902
0.00823467
0.00885948
0.0056406
0.00158117
-0.00566555
0.0161228
0.0114427
0.00340935
0.0171153
0.0114266
0.000788732
-0.00790386
-0.019544
-0.0128835
-0.0215349
0.00382024
0.00495601
-0.0101342
-0.00814828
0.00826778
0.0122836
-0.00160636
0.00628277
-0.0250065
-0.0192124
-0.0186032
-0.00646383
-0.00785024
0.00328611
0.00551868
0.0129382
0.0194174
0.0197218
0.0192178
0.0195882
0.0201977
0.0209776
0.0202812
0.0215911
0.0187937
0.0194179
0.0179917
0.0196759
0.0203978
0.0220357
0.0215066
0.0235401
0.0220775
0.0236401
0.0236892
0.0271445
0.025755
0.0288365
0.0324239
0.0419669
0.0244112
0.0279533
0.0254553
0.0269807
0.0330081
0.0413653
0.0281627
0.0283518
0.0167205
0.021256
0.0151581
0.0242498
0.0254215
0.0288363
0.0324555
0.0391207
0.0146039
0.0259279
0.017416
0.0213314
0.0367944
0.0474322
0.0271544
0.036657
0.0304957
0.0293981
0.0421215
0.0392118
0.0257229
0.0189211
0.0314294
0.0210162
0.0546766
0.0531521
0.0486808
0.0562199
0.0428865
0.0288415
0.0510243
0.0352424
0.0229343
0.0238933
0.0225023
0.0233479
0.0221045
0.0217529
0.0219441
0.0226242
0.0213342
0.0217858
0.0213174
0.0209016
0.0212934
0.020982
0.0202959
0.0199293
0.0206436
0.0204532
0.0196373
0.0198269
0.0207555
0.0209304
0.020249
0.020145
0.0205845
0.0203545
0.0198314
0.0194831
0.0194885
0.0189555
0.0201767
0.0200215
0.0204801
0.0206064
0.0205358
0.021311
0.0206888
0.0207087
0.0217176
0.0218497
0.0186943
0.017925
0.0158744
0.0132445
0.0175344
0.0185842
0.0121162
0.0154005
0.0111998
0.00469806
0.0120707
0.00738043
0.00386074
0.0124781
0.0121612
0.0231615
0.0209263
0.0231242
0.0220802
0.0277983
0.0239556
0.0239433
0.0290766
0.0278181
0.0260704
0.0370806
0.0339825
0.044205
0.0387751
0.0341794
0.0480838
0.041627
0.0191886
0.0185401
0.0188921
0.0181918
0.0198448
0.0196022
0.0185863
0.0178786
0.0182702
0.017578
0.0193017
0.0189618
0.0206275
0.0203978
0.0217588
0.0214128
0.0200659
0.0196691
0.0209438
0.020415
0.0179494
0.0172774
0.0176394
0.0169791
0.0186068
0.0182654
0.0173585
0.0166943
0.017134
0.0164616
0.0179621
0.0177244
0.0192514
0.0188518
0.0198855
0.0193925
0.0184995
0.0182218
0.0189638
0.0186235
0.0235699
0.0228424
0.0263568
0.0248053
0.0220235
0.0212216
0.0233387
0.0220755
0.0298564
0.026911
0.0330205
0.0280454
0.0246264
0.0228166
0.0251445
0.0230522
0.0205035
0.0198742
0.0210768
0.0202696
0.0193426
0.0189214
0.0196152
0.0191012
0.0215075
0.0205183
0.0216078
0.0205336
0.0197449
0.0191399
0.0196909
0.0190154
0.0329503