# vtk DataFile Version 2.0
Gerris simulation version 1.3.2 (131206-155120)
ASCII
DATASET UNSTRUCTURED_GRID

POINTS 1089 float
-0.5 0.46875 0
-0.46875 0.46875 0
-0.5 0.5 0
-0.46875 0.5 0
-0.4375 0.46875 0
-0.4375 0.5 0
-0.5 0.4375 0
-0.46875 0.4375 0
-0.4375 0.4375 0
-0.40625 0.46875 0
-0.40625 0.5 0
-0.375 0.46875 0
-0.375 0.5 0
-0.40625 0.4375 0
-0.375 0.4375 0
-0.5 0.40625 0
-0.46875 0.40625 0
-0.4375 0.40625 0
-0.5 0.375 0
-0.46875 0.375 0
-0.4375 0.375 0
-0.40625 0.40625 0
-0.375 0.40625 0
-0.40625 0.375 0
-0.375 0.375 0
-0.34375 0.46875 0
-0.34375 0.5 0
-0.3125 0.46875 0
-0.3125 0.5 0
-0.34375 0.4375 0
-0.3125 0.4375 0
-0.28125 0.46875 0
-0.28125 0.5 0
-0.25 0.46875 0
-0.25 0.5 0
-0.28125 0.4375 0
-0.25 0.4375 0
-0.34375 0.40625 0
-0.3125 0.40625 0
-0.34375 0.375 0
-0.3125 0.375 0
-0.28125 0.40625 0
-0.25 0.40625 0
-0.28125 0.375 0
-0.25 0.375 0
-0.5 0.34375 0
-0.46875 0.34375 0
-0.4375 0.34375 0
-0.5 0.3125 0
-0.46875 0.3125 0
-0.4375 0.3125 0
-0.40625 0.34375 0
-0.375 0.34375 0
-0.40625 0.3125 0
-0.375 0.3125 0
-0.5 0.28125 0
-0.46875 0.28125 0
-0.4375 0.28125 0
-0.5 0.25 0
-0.46875 0.25 0
-0.4375 0.25 0
-0.40625 0.28125 0
-0.375 0.28125 0
-0.40625 0.25 0
-0.375 0.25 0
-0.34375 0.34375 0
-0.3125 0.34375 0
-0.34375 0.3125 0
-0.3125 0.3125 0
-0.28125 0.34375 0
-0.25 0.34375 0
-0.28125 0.3125 0
-0.25 0.3125 0
-0.34375 0.28125 0
-0.3125 0.28125 0
-0.34375 0.25 0
-0.3125 0.25 0
-0.28125 0.28125 0
-0.25 0.28125 0
-0.28125 0.25 0
-0.25 0.25 0
-0.21875 0.46875 0
-0.21875 0.5 0
-0.1875 0.46875 0
-0.1875 0.5 0
-0.21875 0.4375 0
-0.1875 0.4375 0
-0.15625 0.46875 0
-0.15625 0.5 0
-0.125 0.46875 0
-0.125 0.5 0
-0.15625 0.4375 0
-0.125 0.4375 0
-0.21875 0.40625 0
-0.1875 0.40625 0
-0.21875 0.375 0
-0.1875 0.375 0
-0.15625 0.40625 0
-0.125 0.40625 0
-0.15625 0.375 0
-0.125 0.375 0
-0.09375 0.46875 0
-0.09375 0.5 0
-0.0625 0.46875 0
-0.0625 0.5 0
-0.09375 0.4375 0
-0.0625 0.4375 0
-0.03125 0.46875 0
-0.03125 0.5 0
0 0.46875 0
0 0.5 0
-0.03125 0.4375 0
0 0.4375 0
-0.09375 0.40625 0
-0.0625 0.40625 0
-0.09375 0.375 0
-0.0625 0.375 0
-0.03125 0.40625 0
0 0.40625 0
-0.03125 0.375 0
0 0.375 0
-0.21875 0.34375 0
-0.1875 0.34375 0
-0.21875 0.3125 0
-0.1875 0.3125 0
-0.15625 0.34375 0
-0.125 0.34375 0
-0.15625 0.3125 0
-0.125 0.3125 0
-0.21875 0.28125 0
-0.1875 0.28125 0
-0.21875 0.25 0
-0.1875 0.25 0
-0.15625 0.28125 0
-0.125 0.28125 0
-0.15625 0.25 0
-0.125 0.25 0
-0.09375 0.34375 0
-0.0625 0.34375 0
-0.09375 0.3125 0
-0.0625 0.3125 0
-0.03125 0.34375 0
0 0.34375 0
-0.03125 0.3125 0
0 0.3125 0
-0.09375 0.28125 0
-0.0625 0.28125 0
-0.09375 0.25 0
-0.0625 0.25 0
-0.03125 0.28125 0
0 0.28125 0
-0.03125 0.25 0
0 0.25 0
-0.5 0.21875 0
-0.46875 0.21875 0
-0.4375 0.21875 0
-0.5 0.1875 0
-0.46875 0.1875 0
-0.4375 0.1875 0
-0.40625 0.21875 0
-0.375 0.21875 0
-0.40625 0.1875 0
-0.375 0.1875 0
-0.5 0.15625 0
-0.46875 0.15625 0
-0.4375 0.15625 0
-0.5 0.125 0
-0.46875 0.125 0
-0.4375 0.125 0
-0.40625 0.15625 0
-0.375 0.15625 0
-0.40625 0.125 0
-0.375 0.125 0
-0.34375 0.21875 0
-0.3125 0.21875 0
-0.34375 0.1875 0
-0.3125 0.1875 0
-0.28125 0.21875 0
-0.25 0.21875 0
-0.28125 0.1875 0
-0.25 0.1875 0
-0.34375 0.15625 0
-0.3125 0.15625 0
-0.34375 0.125 0
-0.3125 0.125 0
-0.28125 0.15625 0
-0.25 0.15625 0
-0.28125 0.125 0
-0.25 0.125 0
-0.5 0.09375 0
-0.46875 0.09375 0
-0.4375 0.09375 0
-0.5 0.0625 0
-0.46875 0.0625 0
-0.4375 0.0625 0
-0.40625 0.09375 0
-0.375 0.09375 0
-0.40625 0.0625 0
-0.375 0.0625 0
-0.5 0.03125 0
-0.46875 0.03125 0
-0.4375 0.03125 0
-0.5 0 0
-0.46875 0 0
-0.4375 0 0
-0.40625 0.03125 0
-0.375 0.03125 0
-0.40625 0 0
-0.375 0 0
-0.34375 0.09375 0
-0.3125 0.09375 0
-0.34375 0.0625 0
-0.3125 0.0625 0
-0.28125 0.09375 0
-0.25 0.09375 0
-0.28125 0.0625 0
-0.25 0.0625 0
-0.34375 0.03125 0
-0.3125 0.03125 0
-0.34375 0 0
-0.3125 0 0
-0.28125 0.03125 0
-0.25 0.03125 0
-0.28125 0 0
-0.25 0 0
-0.21875 0.21875 0
-0.1875 0.21875 0
-0.21875 0.1875 0
-0.1875 0.1875 0
-0.15625 0.21875 0
-0.125 0.21875 0
-0.15625 0.1875 0
-0.125 0.1875 0
-0.21875 0.15625 0
-0.1875 0.15625 0
-0.21875 0.125 0
-0.1875 0.125 0
-0.15625 0.15625 0
-0.125 0.15625 0
-0.15625 0.125 0
-0.125 0.125 0
-0.09375 0.21875 0
-0.0625 0.21875 0
-0.09375 0.1875 0
-0.0625 0.1875 0
-0.03125 0.21875 0
0 0.21875 0
-0.03125 0.1875 0
0 0.1875 0
-0.09375 0.15625 0
-0.0625 0.15625 0
-0.09375 0.125 0
-0.0625 0.125 0
-0.03125 0.15625 0
0 0.15625 0
-0.03125 0.125 0
0 0.125 0
-0.21875 0.09375 0
-0.1875 0.09375 0
-0.21875 0.0625 0
-0.1875 0.0625 0
-0.15625 0.09375 0
-0.125 0.09375 0
-0.15625 0.0625 0
-0.125 0.0625 0
-0.21875 0.03125 0
-0.1875 0.03125 0
-0.21875 0 0
-0.1875 0 0
-0.15625 0.03125 0
-0.125 0.03125 0
-0.15625 0 0
-0.125 0 0
-0.09375 0.09375 0
-0.0625 0.09375 0
-0.09375 0.0625 0
-0.0625 0.0625 0
-0.03125 0.09375 0
0 0.09375 0
-0.03125 0.0625 0
0 0.0625 0
-0.09375 0.03125 0
-0.0625 0.03125 0
-0.09375 0 0
-0.0625 0 0
-0.03125 0.03125 0
0 0.03125 0
-0.03125 0 0
0 0 0
0.03125 0.46875 0
0.03125 0.5 0
0.0625 0.46875 0
0.0625 0.5 0
0.03125 0.4375 0
0.0625 0.4375 0
0.09375 0.46875 0
0.09375 0.5 0
0.125 0.46875 0
0.125 0.5 0
0.09375 0.4375 0
0.125 0.4375 0
0.03125 0.40625 0
0.0625 0.40625 0
0.03125 0.375 0
0.0625 0.375 0
0.09375 0.40625 0
0.125 0.40625 0
0.09375 0.375 0
0.125 0.375 0
0.15625 0.46875 0
0.15625 0.5 0
0.1875 0.46875 0
0.1875 0.5 0
0.15625 0.4375 0
0.1875 0.4375 0
0.21875 0.46875 0
0.21875 0.5 0
0.25 0.46875 0
0.25 0.5 0
0.21875 0.4375 0
0.25 0.4375 0
0.15625 0.40625 0
0.1875 0.40625 0
0.15625 0.375 0
0.1875 0.375 0
0.21875 0.40625 0
0.25 0.40625 0
0.21875 0.375 0
0.25 0.375 0
0.03125 0.34375 0
0.0625 0.34375 0
0.03125 0.3125 0
0.0625 0.3125 0
0.09375 0.34375 0
0.125 0.34375 0
0.09375 0.3125 0
0.125 0.3125 0
0.03125 0.28125 0
0.0625 0.28125 0
0.03125 0.25 0
0.0625 0.25 0
0.09375 0.28125 0
0.125 0.28125 0
0.09375 0.25 0
0.125 0.25 0
0.15625 0.34375 0
0.1875 0.34375 0
0.15625 0.3125 0
0.1875 0.3125 0
0.21875 0.34375 0
0.25 0.34375 0
0.21875 0.3125 0
0.25 0.3125 0
0.15625 0.28125 0
0.1875 0.28125 0
0.15625 0.25 0
0.1875 0.25 0
0.21875 0.28125 0
0.25 0.28125 0
0.21875 0.25 0
0.25 0.25 0
0.28125 0.46875 0
0.28125 0.5 0
0.3125 0.46875 0
0.3125 0.5 0
0.28125 0.4375 0
0.3125 0.4375 0
0.34375 0.46875 0
0.34375 0.5 0
0.375 0.46875 0
0.375 0.5 0
0.34375 0.4375 0
0.375 0.4375 0
0.28125 0.40625 0
0.3125 0.40625 0
0.28125 0.375 0
0.3125 0.375 0
0.34375 0.40625 0
0.375 0.40625 0
0.34375 0.375 0
0.375 0.375 0
0.40625 0.46875 0
0.40625 0.5 0
0.4375 0.46875 0
0.4375 0.5 0
0.40625 0.4375 0
0.4375 0.4375 0
0.46875 0.46875 0
0.46875 0.5 0
0.5 0.46875 0
0.5 0.5 0
0.46875 0.4375 0
0.5 0.4375 0
0.40625 0.40625 0
0.4375 0.40625 0
0.40625 0.375 0
0.4375 0.375 0
0.46875 0.40625 0
0.5 0.40625 0
0.46875 0.375 0
0.5 0.375 0
0.28125 0.34375 0
0.3125 0.34375 0
0.28125 0.3125 0
0.3125 0.3125 0
0.34375 0.34375 0
0.375 0.34375 0
0.34375 0.3125 0
0.375 0.3125 0
0.28125 0.28125 0
0.3125 0.28125 0
0.28125 0.25 0
0.3125 0.25 0
0.34375 0.28125 0
0.375 0.28125 0
0.34375 0.25 0
0.375 0.25 0
0.40625 0.34375 0
0.4375 0.34375 0
0.40625 0.3125 0
0.4375 0.3125 0
0.46875 0.34375 0
0.5 0.34375 0
0.46875 0.3125 0
0.5 0.3125 0
0.40625 0.28125 0
0.4375 0.28125 0
0.40625 0.25 0
0.4375 0.25 0
0.46875 0.28125 0
0.5 0.28125 0
0.46875 0.25 0
0.5 0.25 0
0.03125 0.21875 0
0.0625 0.21875 0
0.03125 0.1875 0
0.0625 0.1875 0
0.09375 0.21875 0
0.125 0.21875 0
0.09375 0.1875 0
0.125 0.1875 0
0.03125 0.15625 0
0.0625 0.15625 0
0.03125 0.125 0
0.0625 0.125 0
0.09375 0.15625 0
0.125 0.15625 0
0.09375 0.125 0
0.125 0.125 0
0.15625 0.21875 0
0.1875 0.21875 0
0.15625 0.1875 0
0.1875 0.1875 0
0.21875 0.21875 0
0.25 0.21875 0
0.21875 0.1875 0
0.25 0.1875 0
0.15625 0.15625 0
0.1875 0.15625 0
0.15625 0.125 0
0.1875 0.125 0
0.21875 0.15625 0
0.25 0.15625 0
0.21875 0.125 0
0.25 0.125 0
0.03125 0.09375 0
0.0625 0.09375 0
0.03125 0.0625 0
0.0625 0.0625 0
0.09375 0.09375 0
0.125 0.09375 0
0.09375 0.0625 0
0.125 0.0625 0
0.03125 0.03125 0
0.0625 0.03125 0
0.03125 0 0
0.0625 0 0
0.09375 0.03125 0
0.125 0.03125 0
0.09375 0 0
0.125 0 0
0.15625 0.09375 0
0.1875 0.09375 0
0.15625 0.0625 0
0.1875 0.0625 0
0.21875 0.09375 0
0.25 0.09375 0
0.21875 0.0625 0
0.25 0.0625 0
0.15625 0.03125 0
0.1875 0.03125 0
0.15625 0 0
0.1875 0 0
0.21875 0.03125 0
0.25 0.03125 0
0.21875 0 0
0.25 0 0
0.28125 0.21875 0
0.3125 0.21875 0
0.28125 0.1875 0
0.3125 0.1875 0
0.34375 0.21875 0
0.375 0.21875 0
0.34375 0.1875 0
0.375 0.1875 0
0.28125 0.15625 0
0.3125 0.15625 0
0.28125 0.125 0
0.3125 0.125 0
0.34375 0.15625 0
0.375 0.15625 0
0.34375 0.125 0
0.375 0.125 0
0.40625 0.21875 0
0.4375 0.21875 0
0.40625 0.1875 0
0.4375 0.1875 0
0.46875 0.21875 0
0.5 0.21875 0
0.46875 0.1875 0
0.5 0.1875 0
0.40625 0.15625 0
0.4375 0.15625 0
0.40625 0.125 0
0.4375 0.125 0
0.46875 0.15625 0
0.5 0.15625 0
0.46875 0.125 0
0.5 0.125 0
0.28125 0.09375 0
0.3125 0.09375 0
0.28125 0.0625 0
0.3125 0.0625 0
0.34375 0.09375 0
0.375 0.09375 0
0.34375 0.0625 0
0.375 0.0625 0
0.28125 0.03125 0
0.3125 0.03125 0
0.28125 0 0
0.3125 0 0
0.34375 0.03125 0
0.375 0.03125 0
0.34375 0 0
0.375 0 0
0.40625 0.09375 0
0.4375 0.09375 0
0.40625 0.0625 0
0.4375 0.0625 0
0.46875 0.09375 0
0.5 0.09375 0
0.46875 0.0625 0
0.5 0.0625 0
0.40625 0.03125 0
0.4375 0.03125 0
0.40625 0 0
0.4375 0 0
0.46875 0.03125 0
0.5 0.03125 0
0.46875 0 0
0.5 0 0
-0.5 -0.03125 0
-0.46875 -0.03125 0
-0.4375 -0.03125 0
-0.5 -0.0625 0
-0.46875 -0.0625 0
-0.4375 -0.0625 0
-0.40625 -0.03125 0
-0.375 -0.03125 0
-0.40625 -0.0625 0
-0.375 -0.0625 0
-0.5 -0.09375 0
-0.46875 -0.09375 0
-0.4375 -0.09375 0
-0.5 -0.125 0
-0.46875 -0.125 0
-0.4375 -0.125 0
-0.40625 -0.09375 0
-0.375 -0.09375 0
-0.40625 -0.125 0
-0.375 -0.125 0
-0.34375 -0.03125 0
-0.3125 -0.03125 0
-0.34375 -0.0625 0
-0.3125 -0.0625 0
-0.28125 -0.03125 0
-0.25 -0.03125 0
-0.28125 -0.0625 0
-0.25 -0.0625 0
-0.34375 -0.09375 0
-0.3125 -0.09375 0
-0.34375 -0.125 0
-0.3125 -0.125 0
-0.28125 -0.09375 0
-0.25 -0.09375 0
-0.28125 -0.125 0
-0.25 -0.125 0
-0.5 -0.15625 0
-0.46875 -0.15625 0
-0.4375 -0.15625 0
-0.5 -0.1875 0
-0.46875 -0.1875 0
-0.4375 -0.1875 0
-0.40625 -0.15625 0
-0.375 -0.15625 0
[...]
POINT_DATA 1089
SCALARS T float
LOOKUP_TABLE default
0
0
0
0
0
0
0
0
0
0
0
0
0
0
0
0
0
0
0
0
0
0
0
0
0
0
0
0
0
0
0
0
0
0
0
0
0
0
0
0
0
0
0
0
0
0
0
0
0
0
0
0
0
0
0
0
0
0
0
0
0
0
0
0
0
0
0
0
0
0
0
0
0
0
0
0
0
0
0
0
0
0
0
0
0
0
0
0
0
0
0
0
0
0
0
0
0
0
0
0
0
0
0
0
0
0
0
0
0
0
0
0
0
0
0
0
0
0
0
0
0
0
0
0
0
0
0
0
0
0
0
0
0
0
0
0
0
0
0
0
0
0
0
0
0
0
0
0
0
0
0
0
0
0
0
0
0
0
0
0
0
0
0
0
0
0
0
0
0
0
0
0
0
0
0
0
0
0
0
0
0
0
0
0
0
0
0
0
0
0
0
0
0
0
0
0
0
0
0
0
0
0
0
0
0
0
0
0
0
0
0
0
0
0
0
0
0.00275228
0
0
0
0
0.00515128
0.17846
0.121523
0.54208
0
0
0
0
0
0
0
0
0
0
0
0
0
0
0
0
0
0
0
0
0
0
0
0
0
0
0
0
0
0
0
0
0
0.00282775
0.114003
0.343384
0.0564344
0.138544
0.53574
0.638544
0.53456
0.840557
0.920557
1
0.979306
1
1
1
0.163125
0.111839
0.663125
0.611388
0.0336627
1.16898e-05
0.477412
0.250938
1
0.999549
1
1
0.943749
0.744942
1
0.994015
0
0
0
0
0
0
0
0
0
0
0
0
0
0
0
0
0
0
0
0
0
0
0
0
0
0
0
0
0
0
0
0
0
0
0
0
0
0
0
0
0
0
0
0
0
0
0
0
0
0
0
0
0
0
0
0
0
0.0437086
0.0574692
0.345665
0.182747
0.278824
0.677234
0.778823
0.232857
0.727345
0.36997
0.86997
0.994487
1
1
1
0
0
0
0
0
0
0
0
0
0
0
0
0
0
0
0
0
0
0
0
0
0
0
0
0
0
0
0
0
0
0
0
0
0
0
0
0
0
0
0
0.18912
0.0493351
0.681115
0.356136
0
0
0.0648064
0
0.991994
0.735802
1
0.876738
0.243808
0
0.376738
0
0
0
0
0
0
0
0
0
0
0
0
0
0
0
0
0
0
0
0
0
0
0
0
0
0
0
0
0
0
0
0
0
0.313455
0.813455
0.125422
0.518709
1
1
0.886164
0.984452
0.00654875
0.149836
0
0
0.389615
0.494129
0.00345131
0.00967739
0
0
0.0567271
0
0
0
0
0
0.384706
0.0839639
0.815413
0.346931
0
0
0.0255324
0
0
0
0
0
0
0
0
0
0
0
0
0
0
0
0
0.0108576
1
0.820396
0.890248
0.528361
0.320396
0
0.129687
0
0.396474
0.155701
0.00622608
0
0.00702709
0
0
0
0
0
0
0
0
0
0
0
0
0
0
0
0
0
0
0
0
0
0
0
0
0
0
0
0
0
0.0981148
0.158638
0
0
0.0731195
0.00173865
0
0
0
0
0
0
0
0
0
0
0
0
0
0
0
0
0
0
0
0
0
0
0
0
0
0
0
0
0
0
0
0
0
0
0
0
0
0.00106962
0
0.0193427
0.340235
0.839165
0.492136
0.972793
0
0.0263626
0
0.00808953
0.523524
0.997161
0.43793
0.929841
0
0
0
0
0
0
0
0
0
0
0
0
0
0
0
0
0
0
0
0
0
0
0
0
0.229816
0.721563
0.0471364
0.351799
0
0
0
0
0
0.0629154
0
0
1
1
1
1
1
1
1
1
1
1
1
1
1
1
1
1
1
1
1
1
1
1
1
1
1
1
1
1
1
1
1
1
0.991747
1
0.783659
0.978996
1
1
1
1
0.30659
0.606562
0.0146793
0.127566
0.796982
0.899498
0.296982
0.399498
1
1
1
1
1
1
1
0.940652
0.925338
0.877072
0.425338
0.377072
0.749331
0.525337
0.249331
0.0846853
0
0
0
0
0
0
0
0
0
0
0
0
0
0
0
0
0
0
0
0
0
0
0
0
0
0
0
0
0
0
0
0
0
0
0
0
0
0
0
0
0
0
0
0
0
0
0
0
0
0
0
0
0
0
0
0
0
0
0
0
0
0
0
0
0
0
0
0
0
0
0
0
0
0
0
0
0
0
0
0
0
0
0
0
0
0
0
0
0
0
0
0
0
0
0
0
0
0
0
0
0
0
0
0
0
0
0
0
0
0
0
0
0
0
0
0
0
0
0
0
0
0
0
0
0
0
0
0
0
0
0
0
0
0
0
0
0.987434
0.632144
1
0.783015
0.14471
0
0.283015
0
1
0.816986
1
0.738547
0.316986
0
0.238547
0
0
0
0
0
0.00223666
0.199139
0.0175933
0.453638
0
0
0
0
0.0163379
0.469752
0.00098123
0.227637
0.945185
0.535077
0.659946
0.223788
0.0898918
0
0.0044939
0
0.217252
0.0241085
0.0024912
0
0
0
0
0
0
0
0
0
0
0.0232414
0
0
0
0
0
0
0
0
0
0
0.534159
0.658581
0.936044
0.999944
0.449011
0.127687
0.829885
0.329941
0.953414
1
0.588319
0.705202
0.842866
0.342866
0.486216
0.142678
0
0
0
0
0
0
0
0
0
0
0
0
0
0
0
0
0.134905
0.205202
0
0
0.0973434
0.00380509
0
0
0
0
0
0
0
0
0
0
0
0
0
0
0
0
0
0
0
0
0
0
0
0
0
0
0
0
0
0
0
0
0
0
0
0
0
0
0
0
0
0
0
0
0
0
0
0
0
0
0
0
0
0
0
0
0
0
0
0
0
0
0
0
0
0
0
0
0
0
0
0
0
0
0
0
0
0
0
0
0
0
0
0
0
0
0
0
0
0
0
0
0
0
0
0
0
0
0
0
0
0
0
0
0
0
0
0
0
0
0
0
0
0
0
0
0
0
0
0
0
0
0
0
0
0
0
0
0
0
0
0
0
0
0
0
0
0
0
0
0
0
0
0
0
0
0
0
0
0
0
0
0
0

SCALARS P float
LOOKUP_TABLE default
-0.0112921
-0.01123
-0.0113194
-0.011258
-0.0111529
-0.0111808
-0.0112795
-0.0112166
-0.0111396
-0.0110608
-0.0110868
-0.0109544
-0.0109763
-0.0110485
-0.0109444
-0.0112812
-0.0112175
-0.01114
-0.0112956
-0.0112318
-0.0111537
-0.0110489
-0.010945
-0.0110614
-0.0109556
-0.0108354
-0.0108504
-0.0107066
-0.0107116
-0.0108292
-0.0107059
-0.0105725
-0.0105644
-0.010439
-0.010415
-0.010579
-0.0104541
-0.0108303
-0.0107082
-0.0108384
-0.0107129
-0.0105828
-0.0104599
-0.0105836
-0.0104564
-0.0113233
-0.0112602
-0.0111814
-0.0113656
-0.011304
-0.0112246
-0.0110868
-0.0109771
-0.0111268
-0.0110113
-0.0114238
-0.0113653
-0.0112856
-0.0115032
-0.0114481
-0.0113681
-0.0111841
-0.0110611
-0.0112625
-0.0111312
-0.010854
-0.0107209
-0.0108792
-0.0107338
-0.0105819
-0.0104437
-0.0105789
-0.0104225
-0.010917
-0.0107547
-0.0109725
-0.0107889
-0.0105772
-0.0103939
-0.010581
-0.0103605
-0.0103138
-0.0102725
-0.0102055
-0.0101473
-0.0103382
-0.0102387
-0.0101227
-0.0100506
-0.0100729
-0.00999237
-0.0101632
-0.0101176
-0.0103462
-0.0102489
-0.0103381
-0.0102366
-0.010175
-0.0101302
-0.0101592
-0.0101121
-0.0100607
-0.00997869
-0.0100872
-0.0100111
-0.010106
-0.0101291
-0.0101497
-0.0100857
-0.010242
-0.0101942
-0.010185
-0.0102684
-0.0101183
-0.0101396
-0.0100992
-0.0101209
-0.0101927
-0.0102721
-0.0101753
-0.0102565
-0.0103137
-0.0102012
-0.0102726
-0.010141
-0.0101149
-0.0100621
-0.0100392
-0.00997659
-0.0102137
-0.0100531
-0.0101364
-0.00993238
-0.00992748
-0.00985003
-0.00977088
-0.00967079
-0.0100475
-0.0100716
-0.00995965
-0.0099885
-0.0101318
-0.0102212
-0.010059
-0.0101617
-0.00983034
-0.0098683
-0.00964719
-0.0096998
-0.00995778
-0.0100864
-0.00981902
-0.00998811
-0.0116083
-0.011556
-0.0114759
-0.0117492
-0.0116949
-0.011614
-0.0113667
-0.011227
-0.0115028
-0.011357
-0.0119178
-0.0118614
-0.0117827
-0.0121022
-0.0120507
-0.0119826
-0.0116741
-0.0115277
-0.0118871
-0.0117531
-0.0110521
-0.0108432
-0.0111667
-0.010931
-0.0105962
-0.010326
-0.0106365
-0.010302
-0.011326
-0.011065
-0.0115537
-0.011281
-0.0107139
-0.0102978
-0.0108747
-0.0103632
-0.0122993
-0.0122583
-0.0122101
-0.0124919
-0.012474
-0.0124616
-0.0121408
-0.0120364
-0.0124407
-0.0123979
-0.0126746
-0.0126877
-0.0127232
-0.0128216
-0.0128769
-0.0129757
-0.0127709
-0.0128206
-0.013118
-0.013306
-0.0118585
-0.011595
-0.012286
-0.0120881
-0.0111398
-0.01052
-0.0116378
-0.0107603
-0.0128226
-0.0127567
-0.0135209
-0.013772
-0.0120767
-0.000857802
-0.00563365
0.0212587
-0.0100397
-0.00977283
-0.00992576
-0.00956442
-0.00955887
-0.00942507
-0.00927065
-0.00908469
-0.00979412
-0.00929591
-0.0096658
-0.0089481
-0.00888728
-0.00862678
-0.00835325
-0.00796368
-0.00939608
-0.00947003
-0.00904916
-0.00915838
-0.00962933
-0.00984758
-0.00938103
-0.00967706
-0.00858457
-0.0087507
-0.00791364
-0.00818226
-0.00907128
-0.00948259
-0.00866294
-0.00925942
-0.00953447
-0.00833379
-0.00340963
0.00999146
-0.00488102
-0.000344775
0.0202498
0.0254894
0.0204519
0.037237
0.0437582
0.0472345
0.0440583
0.0447821
0.0464756
0.0460252
0.000887283
-0.00199474
0.0267077
0.0240823
-0.00648193
-0.00897753
0.0170057
0.004366
0.0447674
0.0449954
0.0459463
0.0461965
0.0423581
0.031828
0.0467117
0.047113
-0.0103575
-0.010327
-0.0104866
-0.0104724
-0.0103743
-0.0104947
-0.0106243
-0.0106233
-0.0107649
-0.0107721
-0.0106246
-0.0107626
-0.0103737
-0.0104901
-0.0103593
-0.0104766
-0.0106144
-0.0107531
-0.0105967
-0.0107381
-0.0109037
-0.0109144
-0.0110378
-0.0110458
-0.0109012
-0.0110415
-0.0111754
-0.0111681
-0.0112792
-0.0112649
-0.0112057
-0.0113209
-0.0108885
-0.0110362
-0.0108642
-0.0110332
-0.0112717
-0.0114255
-0.0113823
-0.0115817
-0.0103329
-0.0104603
-0.0102862
-0.0104212
-0.0105827
-0.0107289
-0.0105384
-0.0106564
-0.0102434
-0.0104081
-0.0101959
-0.0104134
-0.0105827
-0.0107184
-0.010674
-0.0108821
-0.0107823
-0.00586031
-0.00384706
0.0301704
0.010122
0.0211167
0.0692717
0.0810852
0.0171217
0.0758314
0.0336052
0.0929676
0.107423
0.108099
0.107875
0.107833
-0.0113361
-0.0113298
-0.0113743
-0.0113751
-0.0113631
-0.0113896
-0.0113949
-0.011402
-0.0114011
-0.0114139
-0.0114017
-0.0114005
-0.0114264
-0.0114231
-0.0115189
-0.0114737
-0.0114235
-0.0114128
-0.0114577
-0.0114337
-0.011393
-0.0114109
-0.0113733
-0.0113949
-0.0113873
-0.0113647
-0.0113394
-0.0113642
-0.0112921
-0.0113185
-0.0113282
-0.0112795
-0.0113946
-0.0113693
-0.0114103
-0.0113837
-0.0113308
-0.0112812
-0.0113449
-0.0112956
0.0101818
-0.00605434
0.068923
0.0298928
-0.0114567
-0.011443
-0.0043126
-0.0114832
0.106824
0.0749389
0.107614
0.0916963
0.0163988
-0.0114602
0.0322752
-0.0113977
-0.0114262
-0.0114053
-0.0114595
-0.0114398
-0.0113702
-0.0113233
-0.0114095
-0.0113656
-0.0114792
-0.0114774
-0.0114989
-0.0115307
-0.0114609
-0.0114238
-0.0115323
-0.0115032
-0.0101038
-0.0103571
-0.0100126
-0.0103237
-0.010607
-0.010799
-0.01057
-0.0107265
-0.00995032
-0.0103717
-0.00993287
-0.0104987
-0.0107012
-0.0109353
-0.0109244
-0.0112462
0.0270878
0.0861442
0.0046439
0.0513547
0.107502
0.107637
0.0945732
0.106203
-0.010128
0.00707465
-0.0114991
-0.0117179
0.0353869
0.0474654
-0.0117444
-0.0113509
-0.00994706
-0.0107278
-0.00715073
-0.0111899
-0.0112423
-0.0115871
-0.0117267
-0.0120326
0.0111397
-0.00711734
0.0371214
0.00824404
-0.0124702
-0.012605
-0.0119463
-0.0132712
-0.0118396
-0.0120568
-0.0122342
-0.0124052
-0.0124521
-0.012768
-0.0126449
-0.0128678
-0.0126614
-0.0127187
-0.0131069
-0.0130148
-0.0128319
-0.0130147
-0.0130077
-0.0112347
0.107368
0.0850833
0.0945389
0.0508293
0.0258197
-0.0114127
0.00344192
-0.0116529
0.0354267
0.00648441
-0.0118795
-0.0125485
-0.0111893
-0.0120084
-0.0123519
-0.01228
-0.0115578
-0.0116179
-0.011742
-0.0117792
-0.0116315
-0.0116083
-0.0117788
-0.0117492
-0.0119952
-0.0119829
-0.0122225
-0.0121834
-0.0119577
-0.0119178
-0.0121448
-0.0121022
-0.0128187
-0.0127729
-0.0129857
-0.0130535
-0.0126471
-0.0125372
-0.0129341
-0.01275
-0.0131984
-0.0134584
0.00402199
0.013861
-0.0133144
-0.0129595
-0.00117337
-0.0128453
-0.0124575
-0.0123921
-0.0126593
-0.0125742
-0.0123415
-0.0122993
-0.0125229
-0.0124919
-0.0128538
-0.0127388
-0.0129955
-0.0128498
-0.0126905
-0.0126746
-0.012814
-0.0128216
-0.0129147
-0.0130198
-0.0131857
-0.0129591
-0.013098
-0.0133137
-0.0134295
-0.0137704
-0.0136332
-0.0140859
-0.0129069
-0.0130816
-0.0133301
-0.0127953
-0.0129851
-0.0132311
-0.0136884
-0.0141921
-0.0135706
-0.0140354
-0.0142466
-0.0148129
-0.0147589
-0.0141559
0.00799202
0.0407938
0.0182021
0.0503376
-0.0149585
-0.0138753
-0.0147289
-0.0149866
0.0204634
0.0523238
0.0146866
0.0477067
-0.0126618
-0.0128286
-0.0130344
-0.0125024
-0.0126314
-0.0127778
-0.0133006
-0.013643
-0.0129473
-0.0131379
-0.0123333
-0.0124188
-0.012505
-0.0121603
-0.0122063
-0.0122405
-0.0125874
-0.0126525
-0.0122536
-0.0122281
-0.0140968
-0.0146911
-0.0133277
-0.0135132
0.00104398
0.0333584
-0.0102059
0.00975494
-0.0126674
-0.0125892
-0.0121329
-0.0119208
-0.0122558
-0.00749633
-0.0115033
-0.0107488
0.0496653
0.0483164
0.0503129
0.048945
0.0474472
0.0469555
0.0480169
0.0474855
0.0505609
0.0491376
0.0503338
0.0488515
0.0481681
0.0476128
0.047865
0.0473044
0.0468385
0.0470608
0.0473464
0.047575
0.0476193
0.0485035
0.0481661
0.049115
0.0474664
0.0477103
0.0471653
0.0474328
0.0483412
0.0493618
0.0481093
0.0491851
0.0491538
0.0481077
0.0358062
0.0457814
0.047112
0.0465504
0.04589
0.0453649
0.00776459
0.024759
-0.00870903
-0.0013832
0.0343733
0.0391492
0.00816649
0.0135185
0.0464282
0.0467297
0.0452668
0.0456175
0.0474844
0.0486583
0.0464333
0.0441619
0.0402936
0.038135
0.0147848
0.0122331
0.0320026
0.0199851
0.00521926
-0.00451087
-0.0119976
-0.0120096
-0.0120025
-0.0118453
-0.0118322
-0.0117963
-0.011966
-0.0118836
-0.0117281
-0.0116146
-0.0117114
-0.0116798
-0.0116245
-0.0115954
-0.0115515
-0.0114846
-0.0115377
-0.01141
-0.0113889
-0.0112582
-0.0117311
-0.0114728
-0.0114383
-0.0111762
-0.0110637
-0.0104387
-0.0108066
-0.0103044
-0.0112301
-0.0109847
-0.0110857
-0.0108651
-0.0106647
-0.0102636
-0.0105943
-0.0102755
-0.011499
-0.0114472
-0.0113739
-0.0114213
-0.0113648
-0.0112886
-0.011275
-0.0111471
-0.0111902
-0.0110679
-0.0113617
-0.0113025
-0.0112252
-0.0113185
-0.011258
-0.0111808
-0.0111289
-0.0110128
-0.0110868
-0.0109763
-0.0109865
-0.0107912
-0.0109203
-0.010748
-0.0105626
-0.0103068
-0.0105542
-0.0103459
-0.0108771
-0.0107238
-0.0108504
-0.0107116
-0.0105568
-0.0103831
-0.0105644
-0.010415
-0.0095974
-0.00860123
-0.00969166
-0.00901399
-0.00767605
-0.00709302
-0.00839538
-0.00799727
-0.00980343
-0.00932787
-0.00992877
-0.00958557
-0.00891714
-0.0086598
-0.00929634
-0.00911585
-0.00694975
-0.00731412
-0.00789837
-0.00815286
-0.00811976
-0.00913458
-0.00868972
-0.00936129
-0.0085987
-0.00875981
-0.00907425
-0.00918662
-0.00910433
-0.00955793
-0.00942565
-0.00974481
-0.01004
-0.00978667
-0.0101362
-0.00994301
-0.00958007
-0.009453
-0.00978872
-0.00969453
-0.0102134
-0.0100612
-0.0102725
-0.0101473
-0.00994211
-0.00986999
-0.0100506
-0.00999237
-0.00942423
-0.00950145
-0.00967329
-0.00972924
-0.00966879
-0.00989867
-0.00985233
-0.0100246
-0.0098535
-0.00989505
-0.00997869
-0.0100111
-0.00998853
-0.0101221
-0.0100857
-0.0101942
0.0489308
0.0263264
0.0504709
0.0366151
-0.0052047
-0.0139684
0.00352827
-0.0144949
0.0507516
0.0391284
0.0506687
0.0338615
0.00578236
-0.014695
0.000667915
-0.0144542
-0.0135101
-0.0131966
-0.0137709
-0.0132271
-0.0124664
0.0234085
-0.00892509
0.0704446
-0.013889
-0.0133148
-0.0137293
-0.0132118
-0.00925986
0.0735908
-0.0125249
0.0295297
0.0465649
0.0203713
0.0280975
0.000917223
-0.00860602
-0.0138717
-0.0131343
-0.0131454
0.00169861
-0.010541
-0.0101474
-0.0111577
-0.0123621
-0.0124289
-0.0116534
-0.011884
-0.0133563
-0.0129447
-0.0128935
-0.0126558
-0.0126025
-0.00792305
-0.0124787
-0.0122729
-0.0123949
-0.0123042
-0.0119883
-0.012012
-0.0122211
-0.0121073
-0.0120111
-0.0119727
0.0840315
0.106107
0.1578
0.170195
0.0667914
0.00885055
0.136788
0.0449804
0.160889
0.169119
0.0952431
0.115759
0.139224
0.0483733
0.0753229
0.0131935
-0.0129525
-0.0128543
-0.0130034
-0.0129039
-0.0128662
-0.0129147
-0.0128891
-0.0129591
-0.0126747
-0.0127341
-0.0122578
-0.012478
-0.0127862
-0.0129069
-0.0126343
-0.0127953
0.0126167
0.0254061
-0.0122621
-0.012083
0.00578653
-0.0113733
-0.0118943
-0.0120518
-0.0121079
-0.0120396
-0.0119638
-0.0119297
-0.0119463
-0.0120269
-0.0118981
-0.0119505
-0.0122284
-0.0123862
-0.0121479
-0.0122719
-0.0125187
-0.0126618
-0.0123849
-0.0125024
-0.0120854
-0.0121683
-0.0119949
-0.012052
-0.0122499
-0.0123333
-0.0121079
-0.0121603
-0.0100614
-0.0107524
-0.0100084
-0.0105387
-0.0112142
-0.0114902
-0.0109412
-0.0112206
-0.0100259
-0.0104392
-0.0100876
-0.010409
-0.0107789
-0.0110384
-0.0106909
-0.0109228
-0.0116569
-0.0117454
-0.0114142
-0.0115405
-0.0117958
-0.0118114
-0.0116253
-0.0116755
-0.011234
-0.0113757
-0.0111095
-0.0112548
-0.011479
-0.0115509
-0.011367
-0.0114507
-0.0101561
-0.0104102
-0.0102238
-0.0104286
-0.010645
-0.0108496
-0.0106265
-0.0108072
-0.0102813
-0.010451
-0.010327
-0.0104724
-0.0106213
-0.0107832
-0.0106233
-0.0107721
-0.0110233
-0.0111659
-0.0109677
-0.0111053
-0.0112812
-0.0113708
-0.0112213
-0.0113135
-0.010933
-0.0110664
-0.0109144
-0.0110458
-0.0111838
-0.0112778
-0.0111681
-0.0112649
-0.0118316
-0.0118374
-0.0117126
-0.0117359
-0.0118378
-0.0118738
-0.0117524
-0.0117815
-0.0116041
-0.0116424
-0.011513
-0.0115584
-0.0116696
-0.0116956
-0.0115902
-0.0116139
-0.0119057
-0.0119413
-0.011806
-0.0118276
-0.0119733
-0.0119976
-0.0118421
-0.0118453
-0.0117139
-0.0117245
-0.0116273
-0.0116301
-0.0117248
-0.0117114
-0.0116203
-0.0115954
-0.0114384
-0.0114879
-0.0113827
-0.0114331
-0.0115218
-0.0115436
-0.0114665
-0.0114859
-0.0113463
-0.0113956
-0.0113298
-0.0113751
-0.0114266
-0.0114427
-0.011402
-0.0114139
-0.0115529
-0.0115495
-0.0114911
-0.0114829
-0.0115321
-0.011499
-0.01146
-0.0114213
-0.0114439
-0.0114315
-0.0114109
-0.0113949
-0.0114043
-0.0113617
-0.0113642
-0.0113194

SCALARS U float
LOOKUP_TABLE default
0.0208671
0.0211188
0.0205674
0.0208505
0.0213682
0.0211405
0.0211837
0.021388
0.0215925
0.0216085
0.0214221
0.0218288
0.021685
0.0217904
0.0219702
0.0214822
0.0216405
0.0218036
0.0217282
0.0218519
0.0219841
0.0219643
0.022111
0.022118
0.0222423
0.0220138
0.021914
0.0221433
0.0220883
0.0221164
0.0222089
0.0221941
0.0221829
0.0221428
0.0221706
0.022225
0.0221427
0.0222277
0.0222939
0.0223417
0.0223942
0.0222861
0.0221814
0.022375
0.0222583
0.0218804
0.0219929
0.0221113
0.0219282
0.0220509
0.022169
0.0222316
0.0223461
0.0222855
0.0223987
0.0218947
0.0220322
0.0221503
0.0218161
0.0219516
0.0220529
0.0222621
0.0223744
0.0221464
0.0222481
0.0224406
0.0224931
0.0224983
0.0225628
0.0224765
0.0223605
0.0225637
0.0224648
0.022483
0.0225691
0.0223642
0.0224819
0.0226048
0.0225457
0.0225787
0.022598
0.0219709
0.0220275
0.0216718
0.0217436
0.0219455
0.0216277
0.0212563
0.02133
0.0207532
0.0208203
0.0211993
0.0206863
0.0219626
0.0216232
0.0220238
0.0216625
0.0211721
0.0206346
0.0211821
0.020609
0.0202052
0.0202648
0.0196614
0.01972
0.0201281
0.019571
0.0191685
0.0192376
0.018763
0.0188533
0.0190601
0.0186342
0.0200502
0.0194669
0.0199869
0.0193702
0.0189316
0.018486
0.0188118
0.0183575
0.0221196
0.0217404
0.0222319
0.0218451
0.0212284
0.0206126
0.0213046
0.0206431
0.0223447
0.0219695
0.022468
0.0221336
0.0214088
0.0206968
0.0215594
0.0207793
0.0199445
0.0192897
0.0199226
0.0192263
0.0187124
0.0182662
0.0186385
0.0182296
0.0199099
0.0191561
0.0198879
0.0190253
0.0185518
0.018196
0.0183545
0.0180118
0.0217381
0.0218261
0.0218766
0.0216423
0.0216417
0.0216106
0.0219268
0.022002
0.0215958
0.0216343
0.0214675
0.0213629
0.0212387
0.0211469
0.0209578
0.0207557
0.0211527
0.0211601
0.0206128
0.0206095
0.0221248
0.0222953
0.0217778
0.0220495
0.0225051
0.0226706
0.0224629
0.0228638
0.0213597
0.0218051
0.0209038
0.0215556
0.0225214
0.0231788
0.0225376
0.023158
0.0206544
0.0204227
0.0201701
0.0200613
0.0198097
0.0195247
0.0199843
0.0199644
0.0192937
0.0192006
0.019446
0.0191741
0.0188519
0.0189201
0.0186078
0.0182406
0.0185283
0.0182125
0.0178008
0.0172053
0.0203085
0.0210013
0.0194148
0.0197319
0.0218864
0.0218879
0.0198785
0.0195132
0.0179503
0.0172846
0.0163726
0.0148966
0.0159993
0.0160943
0.0130746
0.013506
0.0226706
0.02241
0.0230336
0.0228379
0.0218138
0.0209232
0.0221729
0.0211237
0.0234192
0.0231654
0.022982
0.0223898
0.0223643
0.0212244
0.021528
0.0207555
0.0198583
0.0187943
0.0198342
0.0184798
0.0179596
0.0175406
0.0173631
0.0167587
0.019865
0.0183082
0.0200126
0.0188116
0.0168769
0.015999
0.0173761
0.0162622
0.0207357
0.0198973
0.0187244
0.0188057
0.0195401
0.0195644
0.0192986
0.0191325
0.0178048
0.019059
0.0157526
0.016682
0.0193999
0.0189504
0.0169662
0.0178227
0.0198113
0.0195168
0.0187611
0.0185567
0.0188931
0.0182025
0.0187713
0.019273
0.01832
0.0182779
0.0190485
0.0204582
0.0186088
0.0193424
0.021363
0.0215252
0.0184635
0.0185805
0.0182795
0.0184181
0.0183137
0.0181137
0.0182002
0.018347
0.0182209
0.0183508
0.0180261
0.0180545
0.0181485
0.0179338
0.0180229
0.017813
0.0178296
0.0178353
0.0177006
0.0176551
0.0183265
0.0184082
0.0185182
0.0185076
0.0181988
0.0185145
0.0187318
0.0186215
0.0188861
0.0187184
0.0188707
0.0190736
0.0179979
0.0185196
0.0178391
0.0185439
0.0190693
0.0191976
0.019068
0.0189331
0.0179685
0.0178066
0.0180253
0.0180057
0.0177479
0.0176704
0.0181404
0.0182437
0.018128
0.0183602
0.0180354
0.018441
0.0188217
0.0196777
0.0191124
0.0204547
0.017989
0.0186242
0.0187889
0.0193969
0.0186202
0.0186535
0.0192741
0.019615
0.0205669
0.02055
0.0213593
0.020507
0.0203418
0.020594
0.0199303
0.020118
0.0190753
0.0188448
0.0193308
0.0190217
0.0193233
0.0196862
0.0196029
0.0192343
0.0198684
0.0194713
0.020036
0.0203271
0.0194305
0.0199655
0.0191598
0.0199639
0.0204608
0.0207935
0.020724
0.021167
0.0201204
0.0197242
0.02037
0.0199931
0.0205642
0.0207796
0.0206168
0.0202718
0.0208671
0.0205508
0.0209809
0.0211837
0.0210055
0.0211769
0.0213681
0.0215021
0.0213276
0.0214822
0.0216108
0.0217282
0.0192691
0.019971
0.0200797
0.0201684
0.0207729
0.0213237
0.0207399
0.0212686
0.0207408
0.0208507
0.0206135
0.0212562
0.0209791
0.0210849
0.0209776
0.0206996
0.021531
0.0216647
0.0214758
0.0216464
0.0217695
0.0218804
0.0217924
0.0219282
0.0212822
0.0215097
0.0210015
0.0213363
0.0217218
0.0218947
0.0216188
0.0218161
0.0175496
0.0179083
0.0166672
0.0169281
0.0184682
0.0191817
0.0173433
0.0174856
0.0157285
0.0159428
0.0155531
0.0154389
0.0164731
0.0168652
0.0160518
0.0168617
0.0193088
0.0186364
0.0171861
0.0170872
0.0185457
0.0189939
0.0176258
0.018366
0.0172786
0.0183362
0.0179656
0.0197061
0.0195398
0.0201539
0.0212743
0.0219507
0.0171098
0.0161986
0.0192867
0.0183529
0.0162956
0.0170256
0.0174851
0.0174309