# vtk DataFile Version 2.0
Gerris simulation version 1.3.2 (131206-155120)
ASCII
DATASET UNSTRUCTURED_GRID

POINTS 1089 float
-0.5 0.46875 0
-0.46875 0.46875 0
-0.5 0.5 0
-0.46875 0.5 0
-0.4375 0.46875 0
-0.4375 0.5 0
-0.5 0.4375 0
-0.46875 0.4375 0
-0.4375 0.4375 0
-0.40625 0.46875 0
-0.40625 0.5 0
-0.375 0.46875 0
-0.375 0.5 0
-0.40625 0.4375 0
-0.375 0.4375 0
-0.5 0.40625 0
-0.46875 0.40625 0
-0.4375 0.40625 0
-0.5 0.375 0
-0.46875 0.375 0
-0.4375 0.375 0
-0.40625 0.40625 0
-0.375 0.40625 0
-0.40625 0.375 0
-0.375 0.375 0
-0.34375 0.46875 0
-0.34375 0.5 0
-0.3125 0.46875 0
-0.3125 0.5 0
-0.34375 0.4375 0
-0.3125 0.4375 0
-0.28125 0.46875 0
-0.28125 0.5 0
-0.25 0.46875 0
-0.25 0.5 0
-0.28125 0.4375 0
-0.25 0.4375 0
-0.34375 0.40625 0
-0.3125 0.40625 0
-0.34375 0.375 0
-0.3125 0.375 0
-0.28125 0.40625 0
-0.25 0.40625 0
-0.28125 0.375 0
-0.25 0.375 0
-0.5 0.34375 0
-0.46875 0.34375 0
-0.4375 0.34375 0
-0.5 0.3125 0
-0.46875 0.3125 0
-0.4375 0.3125 0
-0.40625 0.34375 0
-0.375 0.34375 0
-0.40625 0.3125 0
-0.375 0.3125 0
-0.5 0.28125 0
-0.46875 0.28125 0
-0.4375 0.28125 0
-0.5 0.25 0
-0.46875 0.25 0
-0.4375 0.25 0
-0.40625 0.28125 0
-0.375 0.28125 0
-0.40625 0.25 0
-0.375 0.25 0
-0.34375 0.34375 0
-0.3125 0.34375 0
-0.34375 0.3125 0
-0.3125 0.3125 0
-0.28125 0.34375 0
-0.25 0.34375 0
-0.28125 0.3125 0
-0.25 0.3125 0
-0.34375 0.28125 0
-0.3125 0.28125 0
-0.34375 0.25 0
-0.3125 0.25 0
-0.28125 0.28125 0
-0.25 0.28125 0
-0.28125 0.25 0
-0.25 0.25 0
-0.21875 0.46875 0
-0.21875 0.5 0
-0.1875 0.46875 0
-0.1875 0.5 0
-0.21875 0.4375 0
-0.1875 0.4375 0
-0.15625 0.46875 0
-0.15625 0.5 0
-0.125 0.46875 0
-0.125 0.5 0
-0.15625 0.4375 0
-0.125 0.4375 0
-0.21875 0.40625 0
-0.1875 0.40625 0
-0.21875 0.375 0
-0.1875 0.375 0
-0.15625 0.40625 0
-0.125 0.40625 0
-0.15625 0.375 0
-0.125 0.375 0
-0.09375 0.46875 0
-0.09375 0.5 0
-0.0625 0.46875 0
-0.0625 0.5 0
-0.09375 0.4375 0
-0.0625 0.4375 0
-0.03125 0.46875 0
-0.03125 0.5 0
0 0.46875 0
0 0.5 0
-0.03125 0.4375 0
0 0.4375 0
-0.09375 0.40625 0
-0.0625 0.40625 0
-0.09375 0.375 0
-0.0625 0.375 0
-0.03125 0.40625 0
0 0.40625 0
-0.03125 0.375 0
0 0.375 0
-0.21875 0.34375 0
-0.1875 0.34375 0
-0.21875 0.3125 0
-0.1875 0.3125 0
-0.15625 0.34375 0
-0.125 0.34375 0
-0.15625 0.3125 0
-0.125 0.3125 0
-0.21875 0.28125 0
-0.1875 0.28125 0
-0.21875 0.25 0
-0.1875 0.25 0
-0.15625 0.28125 0
-0.125 0.28125 0
-0.15625 0.25 0
-0.125 0.25 0
-0.09375 0.34375 0
-0.0625 0.34375 0
-0.09375 0.3125 0
-0.0625 0.3125 0
-0.03125 0.34375 0
0 0.34375 0
-0.03125 0.3125 0
0 0.3125 0
-0.09375 0.28125 0
-0.0625 0.28125 0
-0.09375 0.25 0
-0.0625 0.25 0
-0.03125 0.28125 0
0 0.28125 0
-0.03125 0.25 0
0 0.25 0
-0.5 0.21875 0
-0.46875 0.21875 0
-0.4375 0.21875 0
-0.5 0.1875 0
-0.46875 0.1875 0
-0.4375 0.1875 0
-0.40625 0.21875 0
-0.375 0.21875 0
-0.40625 0.1875 0
-0.375 0.1875 0
-0.5 0.15625 0
-0.46875 0.15625 0
-0.4375 0.15625 0
-0.5 0.125 0
-0.46875 0.125 0
-0.4375 0.125 0
-0.40625 0.15625 0
-0.375 0.15625 0
-0.40625 0.125 0
-0.375 0.125 0
-0.34375 0.21875 0
-0.3125 0.21875 0
-0.34375 0.1875 0
-0.3125 0.1875 0
-0.28125 0.21875 0
-0.25 0.21875 0
-0.28125 0.1875 0
-0.25 0.1875 0
-0.34375 0.15625 0
-0.3125 0.15625 0
-0.34375 0.125 0
-0.3125 0.125 0
-0.28125 0.15625 0
-0.25 0.15625 0
-0.28125 0.125 0
-0.25 0.125 0
-0.5 0.09375 0
-0.46875 0.09375 0
-0.4375 0.09375 0
-0.5 0.0625 0
-0.46875 0.0625 0
-0.4375 0.0625 0
-0.40625 0.09375 0
-0.375 0.09375 0
-0.40625 0.0625 0
-0.375 0.0625 0
-0.5 0.03125 0
-0.46875 0.03125 0
-0.4375 0.03125 0
-0.5 0 0
-0.46875 0 0
-0.4375 0 0
-0.40625 0.03125 0
-0.375 0.03125 0
-0.40625 0 0
-0.375 0 0
-0.34375 0.09375 0
-0.3125 0.09375 0
-0.34375 0.0625 0
-0.3125 0.0625 0
-0.28125 0.09375 0
-0.25 0.09375 0
-0.28125 0.0625 0
-0.25 0.0625 0
-0.34375 0.03125 0
-0.3125 0.03125 0
-0.34375 0 0
-0.3125 0 0
-0.28125 0.03125 0
-0.25 0.03125 0
-0.28125 0 0
-0.25 0 0
-0.21875 0.21875 0
-0.1875 0.21875 0
-0.21875 0.1875 0
-0.1875 0.1875 0
-0.15625 0.21875 0
-0.125 0.21875 0
-0.15625 0.1875 0
-0.125 0.1875 0
-0.21875 0.15625 0
-0.1875 0.15625 0
-0.21875 0.125 0
-0.1875 0.125 0
-0.15625 0.15625 0
-0.125 0.15625 0
-0.15625 0.125 0
-0.125 0.125 0
-0.09375 0.21875 0
-0.0625 0.21875 0
-0.09375 0.1875 0
-0.0625 0.1875 0
-0.03125 0.21875 0
0 0.21875 0
-0.03125 0.1875 0
0 0.1875 0
-0.09375 0.15625 0
-0.0625 0.15625 0
-0.09375 0.125 0
-0.0625 0.125 0
-0.03125 0.15625 0
0 0.15625 0
-0.03125 0.125 0
0 0.125 0
-0.21875 0.09375 0
-0.1875 0.09375 0
-0.21875 0.0625 0
-0.1875 0.0625 0
-0.15625 0.09375 0
-0.125 0.09375 0
-0.15625 0.0625 0
-0.125 0.0625 0
-0.21875 0.03125 0
-0.1875 0.03125 0
-0.21875 0 0
-0.1875 0 0
-0.15625 0.03125 0
-0.125 0.03125 0
-0.15625 0 0
-0.125 0 0
-0.09375 0.09375 0
-0.0625 0.09375 0
-0.09375 0.0625 0
-0.0625 0.0625 0
-0.03125 0.09375 0
0 0.09375 0
-0.03125 0.0625 0
0 0.0625 0
-0.09375 0.03125 0
-0.0625 0.03125 0
-0.09375 0 0
-0.0625 0 0
-0.03125 0.03125 0
0 0.03125 0
-0.03125 0 0
0 0 0
0.03125 0.46875 0
0.03125 0.5 0
0.0625 0.46875 0
0.0625 0.5 0
0.03125 0.4375 0
0.0625 0.4375 0
0.09375 0.46875 0
0.09375 0.5 0
0.125 0.46875 0
0.125 0.5 0
0.09375 0.4375 0
0.125 0.4375 0
0.03125 0.40625 0
0.0625 0.40625 0
0.03125 0.375 0
0.0625 0.375 0
0.09375 0.40625 0
0.125 0.40625 0
0.09375 0.375 0
0.125 0.375 0
0.15625 0.46875 0
0.15625 0.5 0
0.1875 0.46875 0
0.1875 0.5 0
0.15625 0.4375 0
0.1875 0.4375 0
0.21875 0.46875 0
0.21875 0.5 0
0.25 0.46875 0
0.25 0.5 0
0.21875 0.4375 0
0.25 0.4375 0
0.15625 0.40625 0
0.1875 0.40625 0
0.15625 0.375 0
0.1875 0.375 0
0.21875 0.40625 0
0.25 0.40625 0
0.21875 0.375 0
0.25 0.375 0
0.03125 0.34375 0
0.0625 0.34375 0
0.03125 0.3125 0
0.0625 0.3125 0
0.09375 0.34375 0
0.125 0.34375 0
0.09375 0.3125 0
0.125 0.3125 0
0.03125 0.28125 0
0.0625 0.28125 0
0.03125 0.25 0
0.0625 0.25 0
0.09375 0.28125 0
0.125 0.28125 0
0.09375 0.25 0
0.125 0.25 0
0.15625 0.34375 0
0.1875 0.34375 0
0.15625 0.3125 0
0.1875 0.3125 0
0.21875 0.34375 0
0.25 0.34375 0
0.21875 0.3125 0
0.25 0.3125 0
0.15625 0.28125 0
0.1875 0.28125 0
0.15625 0.25 0
0.1875 0.25 0
0.21875 0.28125 0
0.25 0.28125 0
0.21875 0.25 0
0.25 0.25 0
0.28125 0.46875 0
0.28125 0.5 0
0.3125 0.46875 0
0.3125 0.5 0
0.28125 0.4375 0
0.3125 0.4375 0
0.34375 0.46875 0
0.34375 0.5 0
0.375 0.46875 0
0.375 0.5 0
0.34375 0.4375 0
0.375 0.4375 0
0.28125 0.40625 0
0.3125 0.40625 0
0.28125 0.375 0
0.3125 0.375 0
0.34375 0.40625 0
0.375 0.40625 0
0.34375 0.375 0
0.375 0.375 0
0.40625 0.46875 0
0.40625 0.5 0
0.4375 0.46875 0
0.4375 0.5 0
0.40625 0.4375 0
0.4375 0.4375 0
0.46875 0.46875 0
0.46875 0.5 0
0.5 0.46875 0
0.5 0.5 0
0.46875 0.4375 0
0.5 0.4375 0
0.40625 0.40625 0
0.4375 0.40625 0
0.40625 0.375 0
0.4375 0.375 0
0.46875 0.40625 0
0.5 0.40625 0
0.46875 0.375 0
0.5 0.375 0
0.28125 0.34375 0
0.3125 0.34375 0
0.28125 0.3125 0
0.3125 0.3125 0
0.34375 0.34375 0
0.375 0.34375 0
0.34375 0.3125 0
0.375 0.3125 0
0.28125 0.28125 0
0.3125 0.28125 0
0.28125 0.25 0
0.3125 0.25 0
0.34375 0.28125 0
0.375 0.28125 0
0.34375 0.25 0
0.375 0.25 0
0.40625 0.34375 0
0.4375 0.34375 0
0.40625 0.3125 0
0.4375 0.3125 0
0.46875 0.34375 0
0.5 0.34375 0
0.46875 0.3125 0
0.5 0.3125 0
0.40625 0.28125 0
0.4375 0.28125 0
0.40625 0.25 0
0.4375 0.25 0
0.46875 0.28125 0
0.5 0.28125 0
0.46875 0.25 0
0.5 0.25 0
0.03125 0.21875 0
0.0625 0.21875 0
0.03125 0.1875 0
0.0625 0.1875 0
0.09375 0.21875 0
0.125 0.21875 0
0.09375 0.1875 0
0.125 0.1875 0
0.03125 0.15625 0
0.0625 0.15625 0
0.03125 0.125 0
0.0625 0.125 0
0.09375 0.15625 0
0.125 0.15625 0
0.09375 0.125 0
0.125 0.125 0
0.15625 0.21875 0
0.1875 0.21875 0
0.15625 0.1875 0
0.1875 0.1875 0
0.21875 0.21875 0
0.25 0.21875 0
0.21875 0.1875 0
0.25 0.1875 0
0.15625 0.15625 0
0.1875 0.15625 0
0.15625 0.125 0
0.1875 0.125 0
0.21875 0.15625 0
0.25 0.15625 0
0.21875 0.125 0
0.25 0.125 0
0.03125 0.09375 0
0.0625 0.09375 0
0.03125 0.0625 0
0.0625 0.0625 0
0.09375 0.09375 0
0.125 0.09375 0
0.09375 0.0625 0
0.125 0.0625 0
0.03125 0.03125 0
0.0625 0.03125 0
0.03125 0 0
0.0625 0 0
0.09375 0.03125 0
0.125 0.03125 0
0.09375 0 0
0.125 0 0
0.15625 0.09375 0
0.1875 0.09375 0
0.15625 0.0625 0
0.1875 0.0625 0
0.21875 0.09375 0
0.25 0.09375 0
0.21875 0.0625 0
0.25 0.0625 0
0.15625 0.03125 0
0.1875 0.03125 0
0.15625 0 0
0.1875 0 0
0.21875 0.03125 0
0.25 0.03125 0
0.21875 0 0
0.25 0 0
0.28125 0.21875 0
0.3125 0.21875 0
0.28125 0.1875 0
0.3125 0.1875 0
0.34375 0.21875 0
0.375 0.21875 0
0.34375 0.1875 0
0.375 0.1875 0
0.28125 0.15625 0
0.3125 0.15625 0
0.28125 0.125 0
0.3125 0.125 0
0.34375 0.15625 0
0.375 0.15625 0
0.34375 0.125 0
0.375 0.125 0
0.40625 0.21875 0
0.4375 0.21875 0
0.40625 0.1875 0
0.4375 0.1875 0
0.46875 0.21875 0
0.5 0.21875 0
0.46875 0.1875 0
0.5 0.1875 0
0.40625 0.15625 0
0.4375 0.15625 0
0.40625 0.125 0
0.4375 0.125 0
0.46875 0.15625 0
0.5 0.15625 0
0.46875 0.125 0
0.5 0.125 0
0.28125 0.09375 0
0.3125 0.09375 0
0.28125 0.0625 0
0.3125 0.0625 0
0.34375 0.09375 0
0.375 0.09375 0
0.34375 0.0625 0
0.375 0.0625 0
0.28125 0.03125 0
0.3125 0.03125 0
0.28125 0 0
0.3125 0 0
0.34375 0.03125 0
0.375 0.03125 0
0.34375 0 0
0.375 0 0
0.40625 0.09375 0
0.4375 0.09375 0
0.40625 0.0625 0
0.4375 0.0625 0
0.46875 0.09375 0
0.5 0.09375 0
0.46875 0.0625 0
0.5 0.0625 0
0.40625 0.03125 0
0.4375 0.03125 0
0.40625 0 0
0.4375 0 0
0.46875 0.03125 0
0.5 0.03125 0
0.46875 0 0
0.5 0 0
-0.5 -0.03125 0
-0.46875 -0.03125 0
-0.4375 -0.03125 0
-0.5 -0.0625 0
-0.46875 -0.0625 0
-0.4375 -0.0625 0
-0.40625 -0.03125 0
-0.375 -0.03125 0
-0.40625 -0.0625 0
-0.375 -0.0625 0
-0.5 -0.09375 0
-0.46875 -0.09375 0
-0.4375 -0.09375 0
-0.5 -0.125 0
-0.46875 -0.125 0
-0.4375 -0.125 0
-0.40625 -0.09375 0
-0.375 -0.09375 0
-0.40625 -0.125 0
-0.375 -0.125 0
-0.34375 -0.03125 0
-0.3125 -0.03125 0
-0.34375 -0.0625 0
-0.3125 -0.0625 0
-0.28125 -0.03125 0
-0.25 -0.03125 0
-0.28125 -0.0625 0
-0.25 -0.0625 0
-0.34375 -0.09375 0
-0.3125 -0.09375 0
-0.34375 -0.125 0
-0.3125 -0.125 0
-0.28125 -0.09375 0
-0.25 -0.09375 0
-0.28125 -0.125 0
-0.25 -0.125 0
-0.5 -0.15625 0
-0.46875 -0.15625 0
-0.4375 -0.15625 0
-0.5 -0.1875 0
-0.46875 -0.1875 0
-0.4375 -0.1875 0
-0.40625 -0.15625 0
-0.375 -0.15625 0
[...]
POINT_DATA 1089
SCALARS T float
LOOKUP_TABLE default
0
0
0
0
0
0
0
0
0
0
0
0
0
0
0
0
0
0
0
0
0
0
0
0
0
0
0
0
0
0
0
0
0
0
0
0
0
0
0
0
0
0
0
0
0
0
0
0
0
0
0
0
0
0
0
0
0
0
0
0
0
0
0
0
0
0
0
0
0
0
0
0
0
0
0
0
0
0
0
0
0
0
0
0
0
0
0
0
0
0
0
0
0
0
0
0
0
0
0
0
0
0
0
0
0
0
0
0
0
0
0
0
0
0
0
0
0
0
0
0
0
0
0
0
0
0
0
0
0
0
0
0
0
0
0
0
0
0
0
0
0
0
0
0
0
0
0
0
0
0
0
0
0
0
0
0
0
0
0
0
0
0
0
0
0
0
0
0
0
0
0
0
0
0
0
0
0
0
0
0
0
0
0
0
0
0
0
0
0
0
0
0
0
0
0
0
0
0
0
0
0
0
0
0
0
0
0
0
0
0
0
0
0
0
0
0
0.00392816
0
0
0
0
0.00574663
0.184348
0.125424
0.550097
0
0
0
0
0
0
0
0
0
0
0
0
0
0
0
0
0
0
0
0
0
0
0
0
0
0
0
0
0
0
0
0
0
0.00383654
0.119921
0.351575
0.059395
0.14091
0.541141
0.64091
0.544594
0.847738
0.924673
1
0.981746
1
1
1
0.162039
0.106326
0.662039
0.605152
0.0296386
0
0.462843
0.229081
1
0.998826
1
1
0.933205
0.717033
1
0.987952
0
0
0
0
0
0
0
0
0
0
0
0
0
0
0
0
0
0
0
0
0
0
0
0
0
0
0
0
0
0
0
0
0
0
0
0
0
0
0
0
0
0
0
0
0
0
0
0
0
0
0
0
0
0
0
0
0
0.0423544
0.0631482
0.350991
0.173832
0.256881
0.66932
0.756881
0.252192
0.747681
0.400778
0.900778
0.995488
1
1
1
0
0
0
0
0
0
0
0
0
0
0
0
0
0
0
0
0
0
0
0
0
0
0
0
0
0
0
0
0
0
0
0
0
0
0
0
0
0
0
0
0.160149
0.0347448
0.643479
0.314527
0
0
0.0464516
0
0.98333
0.688396
1
0.840813
0.205066
0
0.340813
0
0
0
0
0
0
0
0
0
0
0
0
0
0
0
0
0
0
0
0
0
0
0
0
0
0
0
0
0
0
0
0
0
0.350559
0.850559
0.152127
0.565859
1
1
0.912406
0.993975
0.0133015
0.177034
0
0
0.423823
0.516958
0.0114174
0.0229829
0
0
0.0447023
0
0
0
0
0
0.346932
0.0642769
0.776835
0.301256
0
0
0.0123731
0
0
0
0
0
0
0
0
0
0
0
0
0
0
0
0
0.0105907
1
0.795143
0.897991
0.522044
0.295143
0
0.119354
0
0.409556
0.159098
0.0115655
0
0.00640878
0
0
0
0
0
0
0
0
0
0
0
0
0
0
0
0
0
0
0
0
0
0
0
0
0
0
0
0
0
0.0880297
0.131492
0
0
0.054133
8.0128e-05
0
0
0
0
0
0
0
0
0
0
0
0
0
0
0
0
0
0
0
0
0
0
0
0
0
0
0
0
0
0
0
0
0
0
0
0
0
0.00195415
0
0.0263907
0.347616
0.845662
0.502375
0.975984
0
0.0393718
0
0.0149353
0.539148
0.999776
0.461617
0.946682
0
0
0
0
0
0
0
0
0
0
0
0
0
0
0
0
0
0
0
0
0
0
0
0
0.259409
0.756593
0.0625038
0.392584
0
0
0
0
0
0.0828969
0
0
1
1
1
1
1
1
1
1
1
1
1
1
1
1
1
1
1
1
1
1
1
1
1
1
1
1
1
1
1
1
1
1
0.997184
1
0.819552
0.989471
1
1
1
1
0.348747
0.648186
0.0263789
0.158715
0.833262
0.930558
0.333262
0.430558
1
1
1
1
1
1
1
0.938376
0.951079
0.896943
0.451079
0.396943
0.761511
0.527022
0.261511
0.0886463
0
0
0
0
0
0
0
0
0
0
0
0
0
0
0
0
0
0
0
0
0
0
0
0
0
0
0
0
0
0
0
0
0
0
0
0
0
0
0
0
0
0
0
0
0
0
0
0
0
0
0
0
0
0
0
0
0
0
0
0
0
0
0
0
0
0
0
0
0
0
0
0
0
0
0
0
0
0
0
0
0
0
0
0
0
0
0
0
0
0
0
0
0
0
0
0
0
0
0
0
0
0
0
0
0
0
0
0
0
0
0
0
0
0
0
0
0
0
0
0
0
0
0
0
0
0
0
0
0
0
0
0
0
0
0
0
0.974606
0.580656
1
0.73341
0.10605
0
0.23341
0
1
0.771085
1
0.698039
0.271085
0
0.198039
0
0
0
0
0
0.00561812
0.207969
0.0381405
0.479901
0
0
0
0
0.0384191
0.508418
0.00589674
0.258537
0.93403
0.502358
0.642732
0.205997
0.0683285
0
0.00164151
0
0.211333
0.0203263
0.00263081
0
0
0
0
0
0
0
0
0
0
0.0326408
0
0
0
0
0
0
0
0
0
0
0.52979
0.629562
0.94176
0.99807
0.405389
0.103266
0.789417
0.291347
0.969999
1
0.62831
0.724709
0.819026
0.319026
0.483805
0.134766
0
0
0
0
0
0
0
0
0
0
0
0
0
0
0
0
0.158311
0.224709
0
0
0.10294
0.00390122
0
0
0
0
0
0
0
0
0
0
0
0
0
0
0
0
0
0
0
0
0
0
0
0
0
0
0
0
0
0
0
0
0
0
0
0
0
0
0
0
0
0
0
0
0
0
0
0
0
0
0
0
0
0
0
0
0
0
0
0
0
0
0
0
0
0
0
0
0
0
0
0
0
0
0
0
0
0
0
0
0
0
0
0
0
0
0
0
0
0
0
0
0
0
0
0
0
0
0
0
0
0
0
0
0
0
0
0
0
0
0
0
0
0
0
0
0
0
0
0
0
0
0
0
0
0
0
0
0
0
0
0
0
0
0
0
0
0
0
0
0
0
0
0
0
0
0
0
0
0
0
0
0
0

SCALARS P float
LOOKUP_TABLE default
-0.0111749
-0.0111229
-0.0112056
-0.0111539
-0.011057
-0.0110875
-0.0111572
-0.0111053
-0.01104
-0.0109769
-0.0110053
-0.0108831
-0.0109073
-0.0109614
-0.0108703
-0.0111519
-0.0111005
-0.0110356
-0.0111577
-0.0111078
-0.0110435
-0.0109576
-0.0108673
-0.0109653
-0.0108739
-0.010777
-0.0107942
-0.0106611
-0.0106684
-0.0107683
-0.0106583
-0.0105393
-0.0105334
-0.0104175
-0.0103955
-0.0105442
-0.0104315
-0.0107666
-0.0106583
-0.0107714
-0.0106609
-0.0105466
-0.0104368
-0.0105464
-0.0104334
-0.0111767
-0.0111288
-0.0110648
-0.01121
-0.0111649
-0.011101
-0.0109851
-0.0108907
-0.0110189
-0.0109195
-0.0112612
-0.0112189
-0.0111547
-0.0113361
-0.0112951
-0.0112294
-0.0110691
-0.010963
-0.0111394
-0.0110252
-0.0107835
-0.0106664
-0.0108044
-0.0106766
-0.0105437
-0.0104215
-0.01054
-0.0104017
-0.0108371
-0.0106943
-0.010886
-0.010724
-0.0105375
-0.010375
-0.0105399
-0.0103439
-0.0103028
-0.010263
-0.0102035
-0.0101465
-0.0103267
-0.010237
-0.0101283
-0.010057
-0.0100844
-0.0100043
-0.0101696
-0.0101305
-0.0103351
-0.0102486
-0.0103286
-0.0102391
-0.0101837
-0.0101462
-0.010172
-0.0101332
-0.0100763
-0.00999466
-0.0101047
-0.0100288
-0.0101233
-0.0101485
-0.0101665
-0.0101025
-0.0102557
-0.0102072
-0.010204
-0.0102846
-0.0101392
-0.0101632
-0.0101262
-0.0101512
-0.0102161
-0.0102926
-0.0102061
-0.010285
-0.0103067
-0.0102079
-0.0102692
-0.0101537
-0.0101335
-0.0100905
-0.0100658
-0.010015
-0.0102155
-0.0100736
-0.0101446
-0.00996287
-0.00996438
-0.00990135
-0.00982061
-0.00973835
-0.0100829
-0.0101107
-0.0100069
-0.0100408
-0.0101709
-0.010256
-0.0101121
-0.0102112
-0.00989288
-0.00993746
-0.00972916
-0.00978946
-0.0100286
-0.0101552
-0.00990859
-0.010072
-0.0114393
-0.0113969
-0.0113285
-0.0115736
-0.0115258
-0.0114544
-0.0112338
-0.0111113
-0.0113565
-0.0112277
-0.0117297
-0.0116779
-0.011607
-0.0118983
-0.0118498
-0.0117867
-0.0115104
-0.0113804
-0.0117008
-0.0115811
-0.0109572
-0.0107723
-0.0110595
-0.0108507
-0.0105534
-0.0103125
-0.0105896
-0.0102907
-0.0112021
-0.0109708
-0.0114053
-0.011165
-0.0106607
-0.01029
-0.0108108
-0.0103609
-0.0120723
-0.0120347
-0.0119892
-0.0122443
-0.0122283
-0.012214
-0.0119261
-0.0118317
-0.0121928
-0.0121514
-0.0124107
-0.0124212
-0.0124485
-0.0125442
-0.0125945
-0.0126774
-0.012486
-0.0125237
-0.0127947
-0.0129475
-0.0116756
-0.0114451
-0.0120548
-0.0118876
-0.011053
-0.0105166
-0.0115166
-0.010694
-0.0125261
-0.0124777
-0.0131225
-0.0133282
-0.011838
-0.000464283
-0.00512848
0.0216747
-0.0100563
-0.00981609
-0.00995313
-0.00962423
-0.00962429
-0.00951314
-0.00935537
-0.00919878
-0.00983806
-0.00937994
-0.00973757
-0.00906756
-0.00899515
-0.00877058
-0.00848875
-0.00814633
-0.00950415
-0.00958847
-0.00919289
-0.00931734
-0.00974657
-0.00995417
-0.00953641
-0.00981312
-0.00877772
-0.00897118
-0.00818401
-0.00850234
-0.00928346
-0.00966264
-0.00896481
-0.00950608
-0.00964474
-0.00843934
-0.00314369
0.0104651
-0.00482412
-0.000291582
0.0206835
0.0258159
0.021072
0.0378331
0.0439327
0.0473211
0.0444585
0.045084
0.0466332
0.0462579
0.00069261
-0.00254709
0.0269022
0.0239529
-0.00705588
-0.00931891
0.0162526
0.00302597
0.0451671
0.0454008
0.0462417
0.0464938
0.0421359
0.0303727
0.046935
0.0468233
-0.0103655
-0.0103331
-0.0104864
-0.0104692
-0.0103858
-0.0104985
-0.0106164
-0.01061
-0.0107451
-0.0107458
-0.0106238
-0.0107505
-0.0103894
-0.0104957
-0.0103847
-0.0104925
-0.0106158
-0.0107396
-0.0106126
-0.0107379
-0.0108754
-0.0108768
-0.0110024
-0.0109964
-0.0108832
-0.0110247
-0.0111214
-0.0111018
-0.0112032
-0.0111809
-0.0111694
-0.0112547
-0.0108697
-0.0110422
-0.0108503
-0.0110712
-0.0112637
-0.0113724
-0.0114268
-0.0115513
-0.0103608
-0.0104721
-0.0103285
-0.0104472
-0.0105863
-0.0107044
-0.0105425
-0.010602
-0.0103064
-0.0104715
-0.0102669
-0.0104875
-0.010645
-0.0107912
-0.0107533
-0.0110399
-0.0107277
-0.0060597
-0.00306583
0.0308486
0.00897522
0.0185141
0.0683452
0.0785183
0.0194509
0.0784408
0.0372111
0.0968695
0.107718
0.10819
0.108079
0.107919
-0.0112401
-0.0112296
-0.0112578
-0.01126
-0.0112686
-0.0112644
-0.0112646
-0.0112766
-0.0112667
-0.0112845
-0.0112591
-0.0112559
-0.0113355
-0.0112866
-0.011411
-0.0112901
-0.0112647
-0.0112549
-0.0112529
-0.0112451
-0.0112575
-0.0112808
-0.0112414
-0.0112677
-0.0112422
-0.011225
-0.011214
-0.0112428
-0.0111749
-0.0112049
-0.0111965
-0.0111572
-0.0112363
-0.0112192
-0.011229
-0.0112182
-0.0111905
-0.0111519
-0.0111932
-0.0111577
0.00694675
-0.00747496
0.0644626
0.0251808
-0.0112191
-0.0112337
-0.00611161
-0.011213
0.105684
0.069372
0.107709
0.0875707
0.012155
-0.0111765
0.0282316
-0.0111581
-0.0112279
-0.0112271
-0.0112293
-0.0112437
-0.0112081
-0.0111767
-0.0112353
-0.01121
-0.0112389
-0.0112741
-0.0112781
-0.0113336
-0.0112795
-0.0112612
-0.0113504
-0.0113361
-0.0101882
-0.0104228
-0.0101126
-0.0103828
-0.0106364
-0.0108129
-0.010579
-0.0106834
-0.010073
-0.0104337
-0.0100854
-0.0105612
-0.01071
-0.0109048
-0.0109155
-0.0111789
0.0314952
0.090738
0.00790385
0.057191
0.107653
0.107703
0.097704
0.107215
-0.00918307
0.0105232
-0.0113568
-0.0116064
0.0396523
0.0503882
-0.0104014
-0.00919722
-0.0101425
-0.0107859
-0.00795449
-0.011202
-0.0112164
-0.0115077
-0.0116565
-0.0119146
0.00889708
-0.00822438
0.0346237
0.00544809
-0.0123041
-0.0124294
-0.0124863
-0.0130279
-0.0117119
-0.0119358
-0.0120843
-0.0122553
-0.0121875
-0.0124001
-0.0124297
-0.0125863
-0.0124974
-0.0125799
-0.0129235
-0.0128955
-0.0126793
-0.0127893
-0.0129371
-0.0111765
0.107632
0.0823933
0.0957322
0.050302
0.0230565
-0.0112118
0.00225983
-0.0115386
0.0371612
0.00690094
-0.0110356
-0.0124782
-0.011286
-0.0119089
-0.0122177
-0.012114
-0.0113673
-0.0114341
-0.0115893
-0.011605
-0.011455
-0.0114393
-0.0116018
-0.0115736
-0.0118452
-0.0118029
-0.0120388
-0.0119852
-0.0117707
-0.0117297
-0.0119423
-0.0118983
-0.0125839
-0.0125485
-0.0127331
-0.0126923
-0.0124008
-0.0123064
-0.0125626
-0.0124616
-0.0129094
-0.0128893
0.00228937
0.0092575
-0.0127572
-0.0126259
-0.00406077
-0.0126519
-0.0122198
-0.0121606
-0.0123679
-0.0123136
-0.0121125
-0.0120723
-0.0122705
-0.0122443
-0.0125264
-0.0124649
-0.012598
-0.0125438
-0.0124227
-0.0124107
-0.0125265
-0.0125442
-0.0126578
-0.0127406
-0.0128777
-0.0127135
-0.0128268
-0.01301
-0.0130801
-0.0133632
-0.0132817
-0.0136701
-0.0126834
-0.0128303
-0.0130472
-0.0126125
-0.0127677
-0.0129844
-0.013361
-0.0138087
-0.0132907
-0.0137198
-0.0137537
-0.0141548
-0.0142408
-0.0131298
0.00857675
0.0407918
0.0187772
0.0499807
-0.0144818
-0.012518
-0.0143601
-0.014127
0.0213595
0.0519696
0.0161917
0.0484612
-0.0124844
-0.0126341
-0.0128266
-0.0123355
-0.0124579
-0.0126034
-0.0130828
-0.0134229
-0.0127797
-0.012989
-0.0121788
-0.0122645
-0.0123558
-0.0120134
-0.0120654
-0.0121098
-0.01245
-0.0125367
-0.0121385
-0.012137
-0.0138965
-0.014543
-0.0132339
-0.0135085
0.00292105
0.0355363
-0.00933955
0.0122238
-0.0125963
-0.0125829
-0.0120798
-0.0119171
-0.0123746
-0.00644541
-0.0115698
-0.0108682
0.0494141
0.0482889
0.0500495
0.0488949
0.0475481
0.0471436
0.0481037
0.047659
0.0503486
0.0491172
0.0502331
0.0489037
0.0482764
0.0477992
0.0480255
0.0475285
0.0470716
0.0472857
0.0475592
0.0477763
0.0477723
0.0485274
0.0483025
0.0491317
0.0476887
0.0479245
0.0474212
0.0476869
0.0485015
0.049425
0.0483188
0.0493274
0.0495853
0.0482871
0.0380803
0.0466261
0.0473527
0.0468316
0.0462045
0.0456889
0.0102108
0.0271978
-0.00813272
0.000303173
0.0365462
0.0410609
0.0101337
0.0152342
0.0467348
0.0470466
0.0456128
0.046003
0.0477612
0.0489016
0.0467965
0.0443484
0.0419667
0.0395526
0.0162348
0.0133421
0.0329446
0.0201574
0.00585238
-0.00446576
-0.0118599
-0.0118804
-0.0118854
-0.0117153
-0.011712
-0.0116888
-0.0118649
-0.0118048
-0.0116363
-0.0115429
-0.0115879
-0.0115665
-0.0115237
-0.0114771
-0.0114434
-0.0113884
-0.0114517
-0.011342
-0.0113065
-0.0111919
-0.011682
-0.0114603
-0.0113907
-0.0111568
-0.011096
-0.0105036
-0.010817
-0.0103392
-0.011182
-0.010959
-0.0110366
-0.0108347
-0.0106607
-0.0102776
-0.0105812
-0.0102774
-0.0113844
-0.0113424
-0.0112805
-0.0113088
-0.0112618
-0.0111965
-0.0111947
-0.0110812
-0.0111105
-0.0110016
-0.0112496
-0.0111997
-0.0111332
-0.0112049
-0.0111539
-0.0110875
-0.0110488
-0.0109455
-0.0110053
-0.0109073
-0.0109359
-0.0107565
-0.010868
-0.0107101
-0.0105428
-0.0103001
-0.0105296
-0.0103334
-0.010823
-0.010683
-0.0107942
-0.0106684
-0.0105286
-0.0103665
-0.0105334
-0.0103955
-0.00967032
-0.0086673
-0.00973849
-0.00906044
-0.00773421
-0.00714147
-0.00843863
-0.00803693
-0.00982789
-0.00935729
-0.00994099
-0.00960426
-0.00895108
-0.0086965
-0.00932055
-0.00914501
-0.00702959
-0.00747925
-0.00796249
-0.00826085
-0.00828851
-0.009283
-0.008802
-0.00946204
-0.00865061
-0.00883167
-0.00911425
-0.00923607
-0.00917971
-0.00962482
-0.00947658
-0.00978936
-0.0100434
-0.00979776
-0.0101336
-0.00994854
-0.0095976
-0.0094759
-0.00980096
-0.00971229
-0.0102067
-0.0100629
-0.010263
-0.0101465
-0.00995067
-0.00988404
-0.010057
-0.0100043
-0.00945441
-0.00953664
-0.00969645
-0.00975526
-0.00970421
-0.00992841
-0.00987776
-0.010045
-0.00987197
-0.00991556
-0.00999466
-0.0100288
-0.0100081
-0.0101374
-0.0101025
-0.0102072
0.0478915
0.0228393
0.0503209
0.0330332
-0.00748533
-0.0136442
0.000307808
-0.0141061
0.0506851
0.0357909
0.0507102
0.0310191
0.00274834
-0.0142929
-0.00195799
-0.0140734
-0.0133239
-0.0131611
-0.0135803
-0.0132673
-0.01194
0.0251495
-0.0053926
0.0755842
-0.0136232
-0.0131813
-0.0133865
-0.0128524
-0.00504104
0.0810156
-0.0110546
0.0356105
0.045947
0.0182084
0.0270863
-0.000255078
-0.0098783
-0.0135712
-0.0131823
-0.012944
0.00122047
-0.0108861
-0.0103655
-0.0112529
-0.0123179
-0.0122956
-0.0116336
-0.0117884
-0.0130443
-0.0125886
-0.0126488
-0.012368
-0.0121555
-0.00567607
-0.0121349
-0.0118429
-0.0121991
-0.0120573
-0.0118354
-0.0118155
-0.0119217
-0.011765
-0.0117757
-0.0117126
0.0835347
0.100884
0.159614
0.170054
0.0591938
0.00491809
0.129582
0.0382781
0.164337
0.16947
0.102658
0.119559
0.135269
0.0442821
0.0752739
0.0118945
-0.0127204
-0.0126354
-0.0128169
-0.0126812
-0.012625
-0.0126578
-0.0126639
-0.0127135
-0.0125822
-0.0125589
-0.0123078
-0.0124123
-0.0125917
-0.0126834
-0.0124978
-0.0126125
0.0172544
0.0291579
-0.011799
-0.0117567
0.00698768
-0.0112343
-0.0116707
-0.0118673
-0.0117438
-0.0117622
-0.0116842
-0.011688
-0.011743
-0.0118396
-0.0116958
-0.0117583
-0.0121153
-0.0122442
-0.0120071
-0.0121188
-0.012359
-0.0124844
-0.0122255
-0.0123355
-0.011932
-0.0120129
-0.0118297
-0.0118928
-0.0120956
-0.0121788
-0.0119551
-0.0120134
-0.0101975
-0.0108102
-0.0100918
-0.0105745
-0.0111955
-0.011414
-0.0109241
-0.0111585
-0.0100751
-0.0104569
-0.0101175
-0.0104163
-0.0107593
-0.0109846
-0.0106706
-0.0108754
-0.0115331
-0.0115834
-0.0113124
-0.0114061
-0.0116011
-0.0115962
-0.0114641
-0.011497
-0.0111487
-0.0112632
-0.0110363
-0.0111584
-0.0113438
-0.0113995
-0.0112509
-0.0113194
-0.0101738
-0.0104107
-0.0102343
-0.0104256
-0.0106245
-0.0108075
-0.010607
-0.0107701
-0.0102885
-0.0104472
-0.0103331
-0.0104692
-0.0106045
-0.0107516
-0.01061
-0.0107458
-0.0109602
-0.0110831
-0.0109132
-0.0110338
-0.0111807
-0.0112556
-0.0111332
-0.0112106
-0.0108869
-0.0110056
-0.0108768
-0.0109964
-0.0111065
-0.0111848
-0.0111018
-0.0111809
-0.0116008
-0.0116258
-0.0115221
-0.011552
-0.0116513
-0.0116953
-0.0115808
-0.0116154
-0.0114414
-0.0114794
-0.0113709
-0.0114124
-0.0115116
-0.011541
-0.0114447
-0.0114699
-0.0117452
-0.0117883
-0.0116517
-0.011681
-0.0118277
-0.0118599
-0.0117033
-0.0117153
-0.0115669
-0.0115844
-0.011488
-0.0114964
-0.0115923
-0.0115879
-0.0114935
-0.0114771
-0.0113118
-0.0113548
-0.0112676
-0.0113093
-0.0113859
-0.0114073
-0.0113375
-0.011355
-0.0112397
-0.0112776
-0.0112296
-0.01126
-0.0113011
-0.0113141
-0.0112766
-0.0112845
-0.0114192
-0.0114204
-0.0113614
-0.0113568
-0.0114094
-0.0113844
-0.0113397
-0.0113088
-0.0113154
-0.0113061
-0.0112808
-0.0112677
-0.0112845
-0.0112496
-0.0112428
-0.0112056

SCALARS U float
LOOKUP_TABLE default
0.0210387
0.0213393
0.0207373
0.0210725
0.021638
0.021417
0.0213567
0.0216071
0.0218575
0.0219259
0.0217532
0.0221895
0.022068
0.0220989
0.022317
0.0216575
0.0218603
0.0220679
0.021905
0.0220737
0.0222515
0.0222706
0.0224538
0.022429
0.0225918
0.0224094
0.0223421
0.0225607
0.0225492
0.0224923
0.0226005
0.0226152
0.0226575
0.0225439
0.022632
0.0226148
0.022509
0.0225977
0.0226775
0.0227201
0.0227881
0.0226658
0.0225362
0.0227661
0.0226247
0.0220564
0.0222176
0.0223856
0.0220998
0.0222777
0.0224529
0.0225545
0.0227129
0.0226262
0.0227929
0.0220549
0.0222588
0.0224446
0.0219603
0.0221761
0.0223574
0.0226249
0.0228043
0.0225328
0.0227188
0.0228423
0.022916
0.0229378
0.0230342
0.0229013
0.0227629
0.023046
0.0229299
0.0229737
0.0231081
0.0229164
0.0231058
0.0231696
0.0231036
0.0232519
0.0232827
0.0223248
0.0224426
0.0219501
0.0220759
0.0222643
0.021875
0.021434
0.021546
0.0208131
0.0208966
0.0213546
0.0207358
0.0222694
0.0218594
0.0223412
0.0219069
0.0213188
0.0206791
0.0213333
0.0206537
0.0201416
0.0201931
0.0194809
0.0195092
0.0200674
0.0194054
0.0188889
0.018912
0.0184076
0.018445
0.0188039
0.0183063
0.019989
0.0193048
0.0199215
0.0192006
0.0186823
0.0181669
0.0185533
0.0180295
0.0224718
0.0220138
0.0226461
0.0221711
0.0213987
0.0206637
0.0215106
0.0207072
0.0228525
0.0223764
0.0231091
0.0226591
0.02167
0.0207808
0.021903
0.020892
0.0198723
0.0191024
0.0198403
0.0190104
0.0184281
0.017909
0.018315
0.0178348
0.0198102
0.0188918
0.0197586
0.0186839
0.0181586
0.0177175
0.0178527
0.017403
0.0218721
0.0220497
0.0221896
0.0217975
0.0218737
0.0219297
0.0223347
0.0225134
0.022017
0.0221774
0.0216502
0.0215978
0.0215499
0.0213301
0.02117
0.0210287
0.0215677
0.0217152
0.0209862
0.0211408
0.0227431
0.0230179
0.0224581
0.0228817
0.0233137
0.0235274
0.0234463
0.0239737
0.0220914
0.0227651
0.0216652
0.0226676
0.023753
0.024692
0.0241224
0.0252735
0.0208164
0.0205837
0.0203674
0.0201622
0.0198749
0.0195909
0.0202692
0.0204208
0.0194168
0.0194868
0.0194607
0.0191094
0.018734
0.0188218
0.0183714
0.0178753
0.0184034
0.0181838
0.0173169
0.016638
0.0210582
0.0222651
0.0200352
0.0210171
0.0238769
0.0246409
0.0220841
0.0223665
0.0181905
0.0181465
0.0157803
0.0143998
0.0176444
0.0176512
0.0125352
0.0120754
0.0235054
0.0231158
0.0241802
0.0238485
0.022287
0.0210823
0.0228726
0.0213681
0.0250884
0.0246897
0.0254243
0.0246377
0.0234435
0.0216181
0.0231189
0.021371
0.0196834
0.0183385
0.019581
0.0178188
0.017313
0.0167989
0.0164482
0.0157476
0.0194936
0.0173141
0.01954
0.0174492
0.0155003
0.0144731
0.0154293
0.0140077
0.0238562
0.0225956
0.0214783
0.0206988
0.0213335
0.0203051
0.0202213
0.0194736
0.0182921
0.0185829
0.0131579
0.0139639
0.0186414
0.0185785
0.0150527
0.0170627
0.0194625
0.0182324
0.0187668
0.0181708
0.0168228
0.0154498
0.0177301
0.0172593
0.0186343
0.0190207
0.0194893
0.0218609
0.0193132
0.0195055
0.023411
0.023912
0.0180592
0.0181246
0.0178497
0.017944
0.0179361
0.0177073
0.0177609
0.0178762
0.0177889
0.0179002
0.0176007
0.0176287
0.017779
0.0175361
0.0176462
0.0174165
0.017403
0.0174033
0.0172672
0.0172155
0.0179045
0.0179857
0.018104
0.0181189
0.0177625
0.0180411
0.0183798
0.0182927
0.0186601
0.0184786
0.0184693
0.0188792
0.0175204
0.0179072
0.0172703
0.0176582
0.0185559
0.0190815
0.0183461
0.0188848
0.01756
0.0173828
0.017596
0.0176031
0.0172854
0.0172868
0.0177984
0.0181694
0.0176104
0.0178362
0.0173702
0.0177086
0.0183488
0.0192666
0.0183439
0.0193837
0.0175756
0.0178149
0.0190969
0.0197343
0.0177782
0.0182063
0.0193398
0.0193482
0.0203603
0.0208519
0.0199099
0.0196917
0.0207706
0.0205384
0.0198337
0.0196852
0.018952
0.0186843
0.0192598
0.0189175
0.0192775
0.0196748
0.0195703
0.0191764
0.0198738
0.0194569
0.0200405
0.0203575
0.0195616
0.0200776
0.0194684
0.0202013
0.0205303
0.0208597
0.0208797
0.0212873
0.0201622
0.0197523
0.0204512
0.0200649
0.0206203
0.0208694
0.0207421
0.020391
0.0210387
0.020719
0.0211109
0.0213567
0.0210774
0.0212756
0.0214594
0.0216085
0.0214624
0.0216575
0.0217485
0.021905
0.0190833
0.0199457
0.0198305
0.0203164
0.0208664
0.0214212
0.021019
0.0213953
0.0204648
0.0208204
0.0195827
0.0200382
0.0210858
0.0210877
0.0201115
0.0202521
0.0216047
0.0217621
0.0215353
0.0217294
0.0219023
0.0220564
0.0219138
0.0220998
0.0212535
0.0215457
0.0207824
0.0212863
0.0218162
0.0220549
0.0216739
0.0219603
0.0168032
0.0172167
0.0157131
0.0161721
0.0179012
0.0186282
0.0168799
0.0174757
0.0143056
0.0148271
0.0134089
0.0138001
0.0156966
0.0164391
0.0149345
0.0160405
0.0186829
0.0186653
0.017779
0.0183821
0.019118
0.0188223
0.0188809
0.0184853
0.0173153
0.0185086
0.0173026
0.0186634
0.0194203
0.0200259
0.0200146
0.0216258
0.0142095
0.013931
0.0165294
0.0158559
0.0148707
0.0161432
0.0158917
0.0165419
0.0198793
0.0195497
0.0242844