# vtk DataFile Version 2.0
Gerris simulation version 1.3.2 (131206-155120)
ASCII
DATASET UNSTRUCTURED_GRID

POINTS 1089 float
-0.5 0.46875 0
-0.46875 0.46875 0
-0.5 0.5 0
-0.46875 0.5 0
-0.4375 0.46875 0
-0.4375 0.5 0
-0.5 0.4375 0
-0.46875 0.4375 0
-0.4375 0.4375 0
-0.40625 0.46875 0
-0.40625 0.5 0
-0.375 0.46875 0
-0.375 0.5 0
-0.40625 0.4375 0
-0.375 0.4375 0
-0.5 0.40625 0
-0.46875 0.40625 0
-0.4375 0.40625 0
-0.5 0.375 0
-0.46875 0.375 0
-0.4375 0.375 0
-0.40625 0.40625 0
-0.375 0.40625 0
-0.40625 0.375 0
-0.375 0.375 0
-0.34375 0.46875 0
-0.34375 0.5 0
-0.3125 0.46875 0
-0.3125 0.5 0
-0.34375 0.4375 0
-0.3125 0.4375 0
-0.28125 0.46875 0
-0.28125 0.5 0
-0.25 0.46875 0
-0.25 0.5 0
-0.28125 0.4375 0
-0.25 0.4375 0
-0.34375 0.40625 0
-0.3125 0.40625 0
-0.34375 0.375 0
-0.3125 0.375 0
-0.28125 0.40625 0
-0.25 0.40625 0
-0.28125 0.375 0
-0.25 0.375 0
-0.5 0.34375 0
-0.46875 0.34375 0
-0.4375 0.34375 0
-0.5 0.3125 0
-0.46875 0.3125 0
-0.4375 0.3125 0
-0.40625 0.34375 0
-0.375 0.34375 0
-0.40625 0.3125 0
-0.375 0.3125 0
-0.5 0.28125 0
-0.46875 0.28125 0
-0.4375 0.28125 0
-0.5 0.25 0
-0.46875 0.25 0
-0.4375 0.25 0
-0.40625 0.28125 0
-0.375 0.28125 0
-0.40625 0.25 0
-0.375 0.25 0
-0.34375 0.34375 0
-0.3125 0.34375 0
-0.34375 0.3125 0
-0.3125 0.3125 0
-0.28125 0.34375 0
-0.25 0.34375 0
-0.28125 0.3125 0
-0.25 0.3125 0
-0.34375 0.28125 0
-0.3125 0.28125 0
-0.34375 0.25 0
-0.3125 0.25 0
-0.28125 0.28125 0
-0.25 0.28125 0
-0.28125 0.25 0
-0.25 0.25 0
-0.21875 0.46875 0
-0.21875 0.5 0
-0.1875 0.46875 0
-0.1875 0.5 0
-0.21875 0.4375 0
-0.1875 0.4375 0
-0.15625 0.46875 0
-0.15625 0.5 0
-0.125 0.46875 0
-0.125 0.5 0
-0.15625 0.4375 0
-0.125 0.4375 0
-0.21875 0.40625 0
-0.1875 0.40625 0
-0.21875 0.375 0
-0.1875 0.375 0
-0.15625 0.40625 0
-0.125 0.40625 0
-0.15625 0.375 0
-0.125 0.375 0
-0.09375 0.46875 0
-0.09375 0.5 0
-0.0625 0.46875 0
-0.0625 0.5 0
-0.09375 0.4375 0
-0.0625 0.4375 0
-0.03125 0.46875 0
-0.03125 0.5 0
0 0.46875 0
0 0.5 0
-0.03125 0.4375 0
0 0.4375 0
-0.09375 0.40625 0
-0.0625 0.40625 0
-0.09375 0.375 0
-0.0625 0.375 0
-0.03125 0.40625 0
0 0.40625 0
-0.03125 0.375 0
0 0.375 0
-0.21875 0.34375 0
-0.1875 0.34375 0
-0.21875 0.3125 0
-0.1875 0.3125 0
-0.15625 0.34375 0
-0.125 0.34375 0
-0.15625 0.3125 0
-0.125 0.3125 0
-0.21875 0.28125 0
-0.1875 0.28125 0
-0.21875 0.25 0
-0.1875 0.25 0
-0.15625 0.28125 0
-0.125 0.28125 0
-0.15625 0.25 0
-0.125 0.25 0
-0.09375 0.34375 0
-0.0625 0.34375 0
-0.09375 0.3125 0
-0.0625 0.3125 0
-0.03125 0.34375 0
0 0.34375 0
-0.03125 0.3125 0
0 0.3125 0
-0.09375 0.28125 0
-0.0625 0.28125 0
-0.09375 0.25 0
-0.0625 0.25 0
-0.03125 0.28125 0
0 0.28125 0
-0.03125 0.25 0
0 0.25 0
-0.5 0.21875 0
-0.46875 0.21875 0
-0.4375 0.21875 0
-0.5 0.1875 0
-0.46875 0.1875 0
-0.4375 0.1875 0
-0.40625 0.21875 0
-0.375 0.21875 0
-0.40625 0.1875 0
-0.375 0.1875 0
-0.5 0.15625 0
-0.46875 0.15625 0
-0.4375 0.15625 0
-0.5 0.125 0
-0.46875 0.125 0
-0.4375 0.125 0
-0.40625 0.15625 0
-0.375 0.15625 0
-0.40625 0.125 0
-0.375 0.125 0
-0.34375 0.21875 0
-0.3125 0.21875 0
-0.34375 0.1875 0
-0.3125 0.1875 0
-0.28125 0.21875 0
-0.25 0.21875 0
-0.28125 0.1875 0
-0.25 0.1875 0
-0.34375 0.15625 0
-0.3125 0.15625 0
-0.34375 0.125 0
-0.3125 0.125 0
-0.28125 0.15625 0
-0.25 0.15625 0
-0.28125 0.125 0
-0.25 0.125 0
-0.5 0.09375 0
-0.46875 0.09375 0
-0.4375 0.09375 0
-0.5 0.0625 0
-0.46875 0.0625 0
-0.4375 0.0625 0
-0.40625 0.09375 0
-0.375 0.09375 0
-0.40625 0.0625 0
-0.375 0.0625 0
-0.5 0.03125 0
-0.46875 0.03125 0
-0.4375 0.03125 0
-0.5 0 0
-0.46875 0 0
-0.4375 0 0
-0.40625 0.03125 0
-0.375 0.03125 0
-0.40625 0 0
-0.375 0 0
-0.34375 0.09375 0
-0.3125 0.09375 0
-0.34375 0.0625 0
-0.3125 0.0625 0
-0.28125 0.09375 0
-0.25 0.09375 0
-0.28125 0.0625 0
-0.25 0.0625 0
-0.34375 0.03125 0
-0.3125 0.03125 0
-0.34375 0 0
-0.3125 0 0
-0.28125 0.03125 0
-0.25 0.03125 0
-0.28125 0 0
-0.25 0 0
-0.21875 0.21875 0
-0.1875 0.21875 0
-0.21875 0.1875 0
-0.1875 0.1875 0
-0.15625 0.21875 0
-0.125 0.21875 0
-0.15625 0.1875 0
-0.125 0.1875 0
-0.21875 0.15625 0
-0.1875 0.15625 0
-0.21875 0.125 0
-0.1875 0.125 0
-0.15625 0.15625 0
-0.125 0.15625 0
-0.15625 0.125 0
-0.125 0.125 0
-0.09375 0.21875 0
-0.0625 0.21875 0
-0.09375 0.1875 0
-0.0625 0.1875 0
-0.03125 0.21875 0
0 0.21875 0
-0.03125 0.1875 0
0 0.1875 0
-0.09375 0.15625 0
-0.0625 0.15625 0
-0.09375 0.125 0
-0.0625 0.125 0
-0.03125 0.15625 0
0 0.15625 0
-0.03125 0.125 0
0 0.125 0
-0.21875 0.09375 0
-0.1875 0.09375 0
-0.21875 0.0625 0
-0.1875 0.0625 0
-0.15625 0.09375 0
-0.125 0.09375 0
-0.15625 0.0625 0
-0.125 0.0625 0
-0.21875 0.03125 0
-0.1875 0.03125 0
-0.21875 0 0
-0.1875 0 0
-0.15625 0.03125 0
-0.125 0.03125 0
-0.15625 0 0
-0.125 0 0
-0.09375 0.09375 0
-0.0625 0.09375 0
-0.09375 0.0625 0
-0.0625 0.0625 0
-0.03125 0.09375 0
0 0.09375 0
-0.03125 0.0625 0
0 0.0625 0
-0.09375 0.03125 0
-0.0625 0.03125 0
-0.09375 0 0
-0.0625 0 0
-0.03125 0.03125 0
0 0.03125 0
-0.03125 0 0
0 0 0
0.03125 0.46875 0
0.03125 0.5 0
0.0625 0.46875 0
0.0625 0.5 0
0.03125 0.4375 0
0.0625 0.4375 0
0.09375 0.46875 0
0.09375 0.5 0
0.125 0.46875 0
0.125 0.5 0
0.09375 0.4375 0
0.125 0.4375 0
0.03125 0.40625 0
0.0625 0.40625 0
0.03125 0.375 0
0.0625 0.375 0
0.09375 0.40625 0
0.125 0.40625 0
0.09375 0.375 0
0.125 0.375 0
0.15625 0.46875 0
0.15625 0.5 0
0.1875 0.46875 0
0.1875 0.5 0
0.15625 0.4375 0
0.1875 0.4375 0
0.21875 0.46875 0
0.21875 0.5 0
0.25 0.46875 0
0.25 0.5 0
0.21875 0.4375 0
0.25 0.4375 0
0.15625 0.40625 0
0.1875 0.40625 0
0.15625 0.375 0
0.1875 0.375 0
0.21875 0.40625 0
0.25 0.40625 0
0.21875 0.375 0
0.25 0.375 0
0.03125 0.34375 0
0.0625 0.34375 0
0.03125 0.3125 0
0.0625 0.3125 0
0.09375 0.34375 0
0.125 0.34375 0
0.09375 0.3125 0
0.125 0.3125 0
0.03125 0.28125 0
0.0625 0.28125 0
0.03125 0.25 0
0.0625 0.25 0
0.09375 0.28125 0
0.125 0.28125 0
0.09375 0.25 0
0.125 0.25 0
0.15625 0.34375 0
0.1875 0.34375 0
0.15625 0.3125 0
0.1875 0.3125 0
0.21875 0.34375 0
0.25 0.34375 0
0.21875 0.3125 0
0.25 0.3125 0
0.15625 0.28125 0
0.1875 0.28125 0
0.15625 0.25 0
0.1875 0.25 0
0.21875 0.28125 0
0.25 0.28125 0
0.21875 0.25 0
0.25 0.25 0
0.28125 0.46875 0
0.28125 0.5 0
0.3125 0.46875 0
0.3125 0.5 0
0.28125 0.4375 0
0.3125 0.4375 0
0.34375 0.46875 0
0.34375 0.5 0
0.375 0.46875 0
0.375 0.5 0
0.34375 0.4375 0
0.375 0.4375 0
0.28125 0.40625 0
0.3125 0.40625 0
0.28125 0.375 0
0.3125 0.375 0
0.34375 0.40625 0
0.375 0.40625 0
0.34375 0.375 0
0.375 0.375 0
0.40625 0.46875 0
0.40625 0.5 0
0.4375 0.46875 0
0.4375 0.5 0
0.40625 0.4375 0
0.4375 0.4375 0
0.46875 0.46875 0
0.46875 0.5 0
0.5 0.46875 0
0.5 0.5 0
0.46875 0.4375 0
0.5 0.4375 0
0.40625 0.40625 0
0.4375 0.40625 0
0.40625 0.375 0
0.4375 0.375 0
0.46875 0.40625 0
0.5 0.40625 0
0.46875 0.375 0
0.5 0.375 0
0.28125 0.34375 0
0.3125 0.34375 0
0.28125 0.3125 0
0.3125 0.3125 0
0.34375 0.34375 0
0.375 0.34375 0
0.34375 0.3125 0
0.375 0.3125 0
0.28125 0.28125 0
0.3125 0.28125 0
0.28125 0.25 0
0.3125 0.25 0
0.34375 0.28125 0
0.375 0.28125 0
0.34375 0.25 0
0.375 0.25 0
0.40625 0.34375 0
0.4375 0.34375 0
0.40625 0.3125 0
0.4375 0.3125 0
0.46875 0.34375 0
0.5 0.34375 0
0.46875 0.3125 0
0.5 0.3125 0
0.40625 0.28125 0
0.4375 0.28125 0
0.40625 0.25 0
0.4375 0.25 0
0.46875 0.28125 0
0.5 0.28125 0
0.46875 0.25 0
0.5 0.25 0
0.03125 0.21875 0
0.0625 0.21875 0
0.03125 0.1875 0
0.0625 0.1875 0
0.09375 0.21875 0
0.125 0.21875 0
0.09375 0.1875 0
0.125 0.1875 0
0.03125 0.15625 0
0.0625 0.15625 0
0.03125 0.125 0
0.0625 0.125 0
0.09375 0.15625 0
0.125 0.15625 0
0.09375 0.125 0
0.125 0.125 0
0.15625 0.21875 0
0.1875 0.21875 0
0.15625 0.1875 0
0.1875 0.1875 0
0.21875 0.21875 0
0.25 0.21875 0
0.21875 0.1875 0
0.25 0.1875 0
0.15625 0.15625 0
0.1875 0.15625 0
0.15625 0.125 0
0.1875 0.125 0
0.21875 0.15625 0
0.25 0.15625 0
0.21875 0.125 0
0.25 0.125 0
0.03125 0.09375 0
0.0625 0.09375 0
0.03125 0.0625 0
0.0625 0.0625 0
0.09375 0.09375 0
0.125 0.09375 0
0.09375 0.0625 0
0.125 0.0625 0
0.03125 0.03125 0
0.0625 0.03125 0
0.03125 0 0
0.0625 0 0
0.09375 0.03125 0
0.125 0.03125 0
0.09375 0 0
0.125 0 0
0.15625 0.09375 0
0.1875 0.09375 0
0.15625 0.0625 0
0.1875 0.0625 0
0.21875 0.09375 0
0.25 0.09375 0
0.21875 0.0625 0
0.25 0.0625 0
0.15625 0.03125 0
0.1875 0.03125 0
0.15625 0 0
0.1875 0 0
0.21875 0.03125 0
0.25 0.03125 0
0.21875 0 0
0.25 0 0
0.28125 0.21875 0
0.3125 0.21875 0
0.28125 0.1875 0
0.3125 0.1875 0
0.34375 0.21875 0
0.375 0.21875 0
0.34375 0.1875 0
0.375 0.1875 0
0.28125 0.15625 0
0.3125 0.15625 0
0.28125 0.125 0
0.3125 0.125 0
0.34375 0.15625 0
0.375 0.15625 0
0.34375 0.125 0
0.375 0.125 0
0.40625 0.21875 0
0.4375 0.21875 0
0.40625 0.1875 0
0.4375 0.1875 0
0.46875 0.21875 0
0.5 0.21875 0
0.46875 0.1875 0
0.5 0.1875 0
0.40625 0.15625 0
0.4375 0.15625 0
0.40625 0.125 0
0.4375 0.125 0
0.46875 0.15625 0
0.5 0.15625 0
0.46875 0.125 0
0.5 0.125 0
0.28125 0.09375 0
0.3125 0.09375 0
0.28125 0.0625 0
0.3125 0.0625 0
0.34375 0.09375 0
0.375 0.09375 0
0.34375 0.0625 0
0.375 0.0625 0
0.28125 0.03125 0
0.3125 0.03125 0
0.28125 0 0
0.3125 0 0
0.34375 0.03125 0
0.375 0.03125 0
0.34375 0 0
0.375 0 0
0.40625 0.09375 0
0.4375 0.09375 0
0.40625 0.0625 0
0.4375 0.0625 0
0.46875 0.09375 0
0.5 0.09375 0
0.46875 0.0625 0
0.5 0.0625 0
0.40625 0.03125 0
0.4375 0.03125 0
0.40625 0 0
0.4375 0 0
0.46875 0.03125 0
0.5 0.03125 0
0.46875 0 0
0.5 0 0
-0.5 -0.03125 0
-0.46875 -0.03125 0
-0.4375 -0.03125 0
-0.5 -0.0625 0
-0.46875 -0.0625 0
-0.4375 -0.0625 0
-0.40625 -0.03125 0
-0.375 -0.03125 0
-0.40625 -0.0625 0
-0.375 -0.0625 0
-0.5 -0.09375 0
-0.46875 -0.09375 0
-0.4375 -0.09375 0
-0.5 -0.125 0
-0.46875 -0.125 0
-0.4375 -0.125 0
-0.40625 -0.09375 0
-0.375 -0.09375 0
-0.40625 -0.125 0
-0.375 -0.125 0
-0.34375 -0.03125 0
-0.3125 -0.03125 0
-0.34375 -0.0625 0
-0.3125 -0.0625 0
-0.28125 -0.03125 0
-0.25 -0.03125 0
-0.28125 -0.0625 0
-0.25 -0.0625 0
-0.34375 -0.09375 0
-0.3125 -0.09375 0
-0.34375 -0.125 0
-0.3125 -0.125 0
-0.28125 -0.09375 0
-0.25 -0.09375 0
-0.28125 -0.125 0
-0.25 -0.125 0
-0.5 -0.15625 0
-0.46875 -0.15625 0
-0.4375 -0.15625 0
-0.5 -0.1875 0
-0.46875 -0.1875 0
-0.4375 -0.1875 0
-0.40625 -0.15625 0
-0.375 -0.15625 0
[...]
POINT_DATA 1089
SCALARS T float
LOOKUP_TABLE default
0
0
0
0
0
0
0
0
0
0
0
0
0
0
0
0
0
0
0
0
0
0
0
0
0
0
0
0
0
0
0
0
0
0
0
0
0
0
0
0
0
0
0
0
0
0
0
0
0
0
0
0
0
0
0
0
0
0
0
0
0
0
0
0
0
0
0
0
0
0
0
0
0
0
0
0
0
0
0
0
0
0
0
0
0
0
0
0
0
0
0
0
0
0
0
0
0
0
0
0
0
0
0
0
0
0
0
0
0
0
0
0
0
0
0
0
0
0
0
0
0
0
0
0
0
0
0
0
0
0
0
0
0
0
0
0
0
0
0
0
0
0
0
0
0
0
0
0
0
0
0
0
0
0
0
0
0
0
0
0
0
0
0
0
0
0
0
0
0
0
0
0
0
0
0
0
0
0
0
0
0
0
0
0
0
0
0
0
0
0
0
0
0
0
0
0
0
0
0
0
0
0
0
0
0
0
0
0
0
0
0
0
0
0
0
0
0
0
0
0
0
0
0.0141359
0
0.116226
0
0
0
0
0
0
0
0
0
0
0
0
0
0
0.00081715
0.0414701
0
0
0
0
0
0
0
0
0
0
0.111371
0.119842
0
0
0.0526359
0.00351199
0
0.0564049
0.0667584
0.368
0.261534
0.495782
0.755553
0.954312
0.307813
0.788514
0.593145
0.976919
0.994837
1
1
1
0.611371
0.619842
1
1
0.52236
0.30635
0.969725
0.801572
1
1
1
1
1
0.998734
1
1
0
0
0
0
0
0
0
0
0
0
0
0
0
0
0
0
0
0
0
0
0
0
0
0
0
0
0
0
0
0
0
0
0
0
0
0
0
0
0.000257863
0.0158862
0
0
0
0
0
0
0
0
0
0
0
0
0
0
0
0
0
0.0272988
0
0.196293
0.210418
0.448748
0.629154
0.932861
0.000141532
0.408616
0.000141532
0.45646
0.908475
1
0.956318
1
0
0
0
0
0
0
0
0
0
0
0
0
0
0
0.0257206
0.0100922
0
0
0
0
0
0
0
0
0
0
0
0
0
0
0
0
0
0
0
0
0
0
0
0
0.51733
0.385658
0.991609
0.875566
0.13555
0.00159352
0.472078
0.0881214
1
1
1
1
0.741316
0.241316
0.784455
0.284455
0
0
0
0
0
0
0
0
0
0
0
0
0
0
0
0
0
0
0
0
0
0
0
0
0
0
0
0
0
0
0
0
0
0.305202
0
0.0883639
0.804075
0.998873
0.390142
0.683747
0
0
0
0
0.0529045
0.184874
0
0
0.0831134
0
0.432334
0.100487
0
0
0
0
0.841434
0.378362
0.992213
0.666286
0.0356615
0
0.174073
0
0
0
0
0
0
0
0
0
0
0
0
0
0
0
0
0.00443097
1
0.97178
0.747955
0.611445
0.628396
0.156616
0.272408
0.0269487
0.247955
0.139665
0
0
0.0236796
0
0
0
0
0
0
0
0
0
0
0
0
0
0
0
0
0
0
0
0
0
0
0
0
0
0
0
0.000121384
0.00022027
0.163901
0.3941
0.000341454
0.000242569
0.402504
0.178379
0
0
0
0
0
0
0
0
0
0
0.010505
0
0
0
0
0
0
0
0
0
0
0
0
0
0
0
0
0
0
0
0
0
0
0
0
0
0
0
0
0
0
0.265192
0
0.344061
0
0
0
0
0
0.338202
0
0.246175
0
0
0
0
0
0
0
0
0
0
0
0
0
0
0
0
0
0
0
0
0
0
0
0
0
0.0949346
0
0.00600242
0
0
0
0
0
0
0
0
0.765192
1
0.844061
1
1
1
1
1
0.838202
1
0.746175
1
1
1
1
1
1
1
1
1
1
1
1
1
1
1
1
1
1
1
1
1
0.556124
0.961189
0.257314
0.730379
1
1
0.979067
1
0.0401227
0.293016
0
0.0238262
0.65571
0.887709
0.176643
0.389264
1
1
1
1
1
1
1
0.989142
0.984892
0.991341
0.502517
0.511665
0.913642
0.707858
0.417896
0.218716
0
0
0
0
0
0
0
0
0
0
0
0
0
0
0
0
0
0
0
0
0
0
0
0
0
0
0
0
0
0
0
0
0
0
0
0
0
0
0
0
0
0
0
0
0
0
0
0
0
0
0
0
0
0
0
0
0
0
0
0
0
0
0
0
0
0
0
0
0
0
0
0
0
0
0
0
0
0.00155565
0
0
0
0
0
0
0
0
0
0
0.0176258
0.0203241
0
0
0.00425397
0
0
0
0
0
0
0
0
0
0
0
0
0
0
0
0
0
0
0
0
0
0
0
0
0
0
0
0
0
0
0
0
0
0
0
0
0
0
0
0
0
0
0
1
0.837614
1
0.9163
0.337614
0
0.4163
0
1
0.910753
1
0.819659
0.410753
0
0.319659
0
0
0
0
0
0
0.0894509
0
0.169873
0
0
0
0
0
0.0923157
0
0.00746282
0.984978
0.631309
0.794074
0.32526
0.146331
0
0.0203281
0
0.355511
0.0699541
0.0464149
0
0
0
0
0
0
0
0
0
0
0
0
0
0
0
0
0
0
0
0
0
0.4988
0.89388
0.669873
1
0.902163
0.523762
1
0.691123
0.504814
0.902724
0.169961
0.402724
0.912759
0.528588
0.412759
0.183091
0.10613
0
0.191123
0
0
0
0
0
0.106055
0
0.0105573
0
0
0
0
0
0
0
0
0
0
0
0
0
0
0
0
0
0
0
0
0
0
0
0
0
0
0
0
0
0
0
0
0
0
0
0
0
0
0
0
0
0
0
0
0
0
0
0
0
0
0
0
0
0
0
0
0
0
0
0
0
0
0
0
0
0
0
0
0
0
0
0
0
0
0
0
0
0
0
0
0
0
0
0
0
0
0
0
0
0
0
0
0
0
0
0
0
0
0
0
0
0
0
0
0
0
0
0
0
0
0
0
0
0
0
0
0
0
0
0
0
0
0
0
0
0
0
0
0
0
0
0
0
0
0
0
0
0
0
0
0
0
0
0
0
0
0
0
0
0
0
0
0
0
0
0
0
0
0
0
0
0
0
0
0

SCALARS P float
LOOKUP_TABLE default
-0.0111122
-0.011136
-0.0111098
-0.0111328
-0.0111648
-0.0111609
-0.0111068
-0.0111325
-0.0111624
-0.0111997
-0.0111955
-0.0112403
-0.0112364
-0.0111981
-0.0112393
-0.0110983
-0.0111249
-0.0111553
-0.0110835
-0.0111103
-0.0111413
-0.0111917
-0.0112336
-0.011179
-0.0112227
-0.0112863
-0.0112833
-0.0113366
-0.0113353
-0.0112854
-0.0113356
-0.0113897
-0.0113911
-0.0114436
-0.0114484
-0.0113883
-0.0114413
-0.0112809
-0.0113325
-0.0112723
-0.0113269
-0.0113868
-0.0114418
-0.0113851
-0.0114448
-0.0110607
-0.01109
-0.011122
-0.0110466
-0.0110672
-0.0110967
-0.0111611
-0.0112066
-0.0111361
-0.0111836
-0.0110043
-0.0110284
-0.0110605
-0.0109406
-0.010977
-0.0110145
-0.011102
-0.011152
-0.0110582
-0.0111104
-0.0112592
-0.0113182
-0.01124
-0.0113047
-0.0113824
-0.0114497
-0.0113771
-0.0114552
-0.0112127
-0.0112842
-0.0111748
-0.0112534
-0.0113669
-0.0114594
-0.011348
-0.0114585
-0.0114953
-0.0115044
-0.0115417
-0.0115553
-0.0114921
-0.0115372
-0.0115791
-0.011597
-0.0116042
-0.0116258
-0.0115734
-0.0115973
-0.0114946
-0.0115418
-0.0115029
-0.0115557
-0.0115797
-0.0116047
-0.0115987
-0.0116275
-0.0116142
-0.0116382
-0.0116078
-0.0116327
-0.0116062
-0.0115989
-0.0115851
-0.0116097
-0.0115473
-0.0115706
-0.0115752
-0.0115362
-0.0116139
-0.0116056
-0.0116385
-0.0116295
-0.0115796
-0.0115366
-0.0116001
-0.0115511
-0.0115168
-0.0115792
-0.0115356
-0.011613
-0.0116313
-0.0116674
-0.0116796
-0.0117275
-0.0115585
-0.0116575
-0.0115825
-0.0117126
-0.0117461
-0.0118125
-0.0118343
-0.0119297
-0.0116821
-0.0116726
-0.0117488
-0.0117394
-0.0116382
-0.0115804
-0.0116992
-0.0116303
-0.0118445
-0.011836
-0.0119789
-0.0119721
-0.0117879
-0.0117044
-0.0119134
-0.0118097
-0.010893
-0.0109276
-0.0109634
-0.0108577
-0.0108817
-0.0109092
-0.0110055
-0.0110572
-0.0109443
-0.0109908
-0.0108209
-0.0108308
-0.0108466
-0.0107731
-0.0107712
-0.010774
-0.0108706
-0.0109072
-0.0107832
-0.010804
-0.0111235
-0.0112079
-0.0110548
-0.011142
-0.0113153
-0.0114474
-0.0112606
-0.0114166
-0.0109634
-0.0110473
-0.010844
-0.0109145
-0.0111727
-0.0113526
-0.0110369
-0.0112343
-0.0107283
-0.0107101
-0.0106953
-0.0106714
-0.0106404
-0.0106088
-0.0106838
-0.0106805
-0.0105736
-0.0105384
-0.0106217
-0.010576
-0.0105257
-0.0105757
-0.0105172
-0.0104509
-0.010463
-0.010389
-0.0103628
-0.0102494
-0.0106921
-0.0107333
-0.0105076
-0.0104951
-0.01083
-0.0110161
-0.0105244
-0.0106331
-0.0103025
-0.0102131
-0.0101026
-0.00991843
-0.0101294
-0.00920118
-0.00968351
-0.00274023
-0.0116043
-0.0117789
-0.0116153
-0.011853
-0.011951
-0.0120915
-0.0121011
-0.0123116
-0.0116024
-0.011931
-0.0115443
-0.012008
-0.0123061
-0.0126355
-0.0125397
-0.0105475
-0.0121674
-0.012162
-0.0124296
-0.0124233
-0.0120838
-0.0119465
-0.0123121
-0.0121206
-0.0128168
-0.0128006
-0.00645155
-0.00598912
-0.0126293
-0.0123508
-0.00998217
-0.0125147
-0.0113558
-0.00846728
-0.00691225
0.0107548
0.00367567
0.0181013
0.034238
0.0470052
0.00772022
0.0357921
0.0243107
0.0462111
0.0484166
0.049196
0.0481588
0.0486426
0.0253988
0.0258598
0.05023
0.0502508
0.0195272
0.00592395
0.0479202
0.0367332
0.0494657
0.0494853
0.0489097
0.0489261
0.0492733
0.0487637
0.0486992
0.0482394
-0.0114978
-0.0115194
-0.0114389
-0.0114591
-0.011485
-0.0114232
-0.0113771
-0.0113962
-0.0113144
-0.0113332
-0.0113579
-0.0112905
-0.0114797
-0.0114106
-0.0114855
-0.0114048
-0.0113355
-0.0112562
-0.0113143
-0.0112175
-0.0112598
-0.0112771
-0.0112118
-0.0112277
-0.011233
-0.0111826
-0.0111771
-0.0111886
-0.0111623
-0.0111629
-0.0111537
-0.0111557
-0.0111905
-0.0111333
-0.0111375
-0.0110592
-0.0111143
-0.0111597
-0.0110188
-0.0093897
-0.0115019
-0.0114043
-0.0115359
-0.0114203
-0.011293
-0.0111707
-0.0112872
-0.0111331
-0.011592
-0.0114596
-0.0116746
-0.0115268
-0.0113142
-0.0111531
-0.0113807
-0.0112585
-0.011053
-0.00761408
-0.0109616
0.0126923
0.0141014
0.0421239
0.0640034
0.0998776
-0.0109008
0.0380112
-0.0110737
0.0438274
0.0972707
0.107927
0.103359
0.10816
-0.0111448
-0.0111388
-0.0111034
-0.0111104
-0.0111539
-0.011086
-0.0110697
-0.0110861
-0.0110704
-0.0110795
-0.0110347
-0.011053
-0.0112092
-0.0110674
-0.00844516
-0.0099404
-0.010965
-0.0110272
-0.0109017
-0.0110432
-0.0110726
-0.0110785
-0.0110794
-0.0110824
-0.011057
-0.0110682
-0.0110947
-0.0110943
-0.0111122
-0.0111109
-0.0110876
-0.0111068
-0.0110347
-0.0110549
-0.0110291
-0.0110463
-0.0110783
-0.0110983
-0.0110651
-0.0110835
0.0500022
0.0340617
0.106939
0.0925331
0.00465092
-0.0107642
0.044186
-0.000953004
0.1081
0.107953
0.108101
0.107972
0.0762887
0.0168975
0.0815453
0.0222655
-0.0109358
-0.0109998
-0.0110788
-0.0110564
-0.011034
-0.0110607
-0.0110376
-0.0110466
-0.0110087
-0.0109934
-0.0107117
-0.0108312
-0.0109852
-0.0110043
-0.0108901
-0.0109406
-0.011774
-0.011597
-0.0118806
-0.0116387
-0.0114435
-0.0113558
-0.0114411
-0.0113185
-0.0119962
-0.0116446
-0.012137
-0.0116122
-0.0113809
-0.0112146
-0.0112718
-0.0110814
-0.0113211
0.0258582
-0.0112509
-0.000277414
0.0857706
0.108569
0.0362266
0.071226
-0.0110989
-0.0110497
-0.0109665
-0.0109495
-0.00455876
0.0112675
-0.0109446
-0.0110203
-0.00726008
-0.0114414
0.0139849
-0.00526438
-0.0110333
-0.0108364
-0.0105983
-0.010485
0.0384767
0.0112001
0.0469786
0.0278102
-0.00806156
-0.0100215
0.000126286
-0.00950416
-0.0107318
-0.0107247
-0.0104493
-0.0104862
-0.0107269
-0.0107974
-0.0105209
-0.0105991
-0.0101066
-0.0102127
-0.00974691
-0.00994004
-0.0102935
-0.0103993
-0.0100689
-0.00935398
0.108475
0.104882
0.0786451
0.061972
0.0634351
0.00741913
0.0213759
-0.00765216
0.0187034
0.00557674
-0.011061
-0.0110816
-0.00822016
-0.010831
-0.0109812
-0.0108224
-0.0106844
-0.0107952
-0.0107558
-0.0107973
-0.0108472
-0.010893
-0.0108305
-0.0108577
-0.0108389
-0.0108095
-0.0108161
-0.0107824
-0.0108152
-0.0108209
-0.0107778
-0.0107731
-0.0108357
-0.0108768
-0.0106276
-0.010714
-0.0108894
-0.0108208
-0.0108308
-0.0107952
-0.0104067
-0.0105211
0.0192844
0.060561
-0.0107598
-0.0107837
0.0616282
0.0209651
-0.0108088
-0.0107701
-0.0107679
-0.0107304
-0.0107474
-0.0107283
-0.0106972
-0.0106714
-0.0107526
-0.0107029
-0.00906298
-0.0106924
-0.0106557
-0.0106217
-0.0106206
-0.0105757
-0.0105198
-0.0104667
-0.0103951
-0.0104856
-0.0104482
-0.0103759
-0.0102901
-0.010145
-0.0102644
-0.0101052
-0.010521
-0.0104778
-0.0104023
-0.0105927
-0.0105395
-0.010467
-0.0102946
-0.0101444
-0.0103737
-0.010252
-0.00994786
-0.00967087
-0.00988632
-0.00956628
-0.00929076
0.0059965
-0.00912375
0.0104481
-0.0099404
-0.00965243
-0.0100936
-0.00989423
-0.00925327
0.0100937
-0.00962172
0.00477978
-0.0106611
-0.0106118
-0.0105525
-0.0107346
-0.0106934
-0.0106503
-0.010483
-0.0104007
-0.0106068
-0.0105647
-0.0107985
-0.0107708
-0.0107459
-0.0108586
-0.0108435
-0.0108341
-0.0107268
-0.0107182
-0.0108341
-0.0108484
-0.0103033
-0.0102054
-0.010528
-0.0105179
-0.0100896
-0.00436436
-0.0105482
-0.010265
-0.0107273
-0.0107736
-0.0108844
-0.0109559
-0.0108869
-0.0111052
-0.0110864
-0.0112917
0.0338854
0.0471167
0.0381954
0.0470063
0.0478254
0.0483073
0.0476848
0.0481523
0.0379948
0.0471283
0.0330825
0.0474551
0.0477508
0.0481863
0.0480001
0.048388
0.0485609
0.0485725
0.0483909
0.0484002
0.0483487
0.0478787
0.0481848
0.0477256
0.0484074
0.048416
0.0485888
0.0485965
0.0482158
0.0477861
0.0484143
0.0480286
0.0223779
0.0458284
0.00454572
0.0327299
0.0483854
0.0487236
0.0477521
0.0492192
-0.00895944
0.00621791
-0.011647
-0.0105342
0.028349
0.042798
-0.00130336
0.0117584
0.0489091
0.048919
0.0493721
0.0493811
0.0487583
0.0484297
0.0492622
0.0483235
0.0489849
0.0493526
0.0187714
0.0192744
0.0442527
0.0311568
0.0133031
0.000892181
-0.0109125
-0.0109084
-0.0109116
-0.0109605
-0.0109649
-0.0109772
-0.0109256
-0.0109553
-0.0110007
-0.0110389
-0.0110022
-0.0110128
-0.0110314
-0.0110373
-0.0110521
-0.0110747
-0.0110605
-0.011103
-0.011107
-0.0111509
-0.0110066
-0.0110896
-0.0110966
-0.0111797
-0.0112189
-0.011401
-0.0112961
-0.0114478
-0.0111618
-0.0112406
-0.0112082
-0.0112808
-0.0113429
-0.0114686
-0.0113697
-0.0114737
-0.0110657
-0.0110833
-0.0111084
-0.0110874
-0.011107
-0.0111335
-0.0111422
-0.0111859
-0.0111677
-0.0112105
-0.0111023
-0.0111233
-0.0111507
-0.0111109
-0.0111328
-0.0111609
-0.0111851
-0.0112268
-0.0111955
-0.0112364
-0.0112403
-0.0113063
-0.0112619
-0.011322
-0.0113834
-0.01147
-0.0113897
-0.0114631
-0.0112756
-0.0113309
-0.0112833
-0.0113353
-0.0113915
-0.0114553
-0.0113911
-0.0114484
-0.0116681
-0.0119721
-0.0116466
-0.0118648
-0.0122819
-0.012477
-0.0120784
-0.0122674
-0.0116198
-0.0117792
-0.011591
-0.0117104
-0.0119282
-0.0120519
-0.0118189
-0.0119049
-0.0116428
-0.0115026
-0.0123578
-0.0123561
-0.0123729
-0.0123781
-0.0122796
-0.0121146
-0.0121135
-0.0121125
-0.0119478
-0.0119449
-0.0120555
-0.0119396
-0.0118997
-0.011814
-0.0115629
-0.0116545
-0.0115388
-0.0116112
-0.0117353
-0.0117968
-0.0116733
-0.0117189
-0.011519
-0.0115782
-0.0115044
-0.0115553
-0.0116279
-0.0116632
-0.011597
-0.0116258
-0.0118275
-0.0118245
-0.0117409
-0.011737
-0.0117891
-0.011724
-0.0117079
-0.0116561
-0.0116795
-0.0116749
-0.0116382
-0.0116327
-0.0116498
-0.0116063
-0.0116097
-0.0115706
0.0471533
0.0372829
0.0470465
0.0415864
0.00949818
-0.00906583
0.0139516
-0.00886442
0.0471615
0.0414331
0.0474679
0.0366312
0.0136493
-0.0089898
0.00844385
-0.00938548
-0.00945511
-0.00974417
-0.00931301
-0.00963631
-0.00994832
0.00640524
-0.0098515
0.0214585
-0.00938738
-0.00964403
-0.00965063
-0.0098141
-0.00977837
0.00750015
-0.00992271
-0.0084194
0.0470231
0.0261082
0.0360366
0.00806287
-0.00173164
-0.00992225
-0.00947059
-0.0104391
0.00950181
-0.00739654
-0.00942825
-0.0117106
-0.0110784
-0.0108171
-0.0112973
-0.0110501
-0.0100203
-0.0100911
-0.0103869
-0.0103742
-0.0101831
-0.0102574
-0.0104153
-0.010468
-0.0106829
-0.0106203
-0.0108986
-0.0108145
-0.0106195
-0.0106461
-0.0107854
-0.0107862
0.0802705
0.151282
0.111773
0.170964
0.152648
0.0834302
0.171341
0.114354
0.0824373
0.154472
0.0213613
0.0635434
0.15631
0.0854788
0.0648553
0.0225718
0.00791468
-0.010569
0.0234669
-0.0103922
-0.0105435
-0.0105198
-0.0104778
-0.0104856
0.00838747
-0.0105016
-0.00890012
-0.010709
-0.010544
-0.010521
-0.0106514
-0.0105927
-0.0103964
-0.0108977
-0.0105837
-0.0108321
-0.0113685
-0.0111951
-0.0110851
-0.0110678
-0.0107262
-0.0108563
-0.0108256
-0.010887
-0.0109752
-0.0109838
-0.0109439
-0.0109598
-0.0108719
-0.0107868
-0.0109056
-0.0108435
-0.0107198
-0.0106611
-0.0107859
-0.0107346
-0.0109091
-0.0108724
-0.0109265
-0.0109045
-0.0108343
-0.0107985
-0.0108809
-0.0108586
-0.0120588
-0.011703
-0.0118971
-0.0116575
-0.011403
-0.0111946
-0.0114416
-0.0112746
-0.0117876
-0.0116178
-0.0117024
-0.011577
-0.0114567
-0.0113215
-0.0114539
-0.0113443
-0.0110506
-0.0109591
-0.011149
-0.011061
-0.0109124
-0.0108939
-0.0110071
-0.0109771
-0.0112134
-0.0111318
-0.0112525
-0.0111792
-0.011076
-0.0110399
-0.011125
-0.0110869
-0.0116388
-0.0115418
-0.0115882
-0.01151
-0.0114441
-0.0113534
-0.0114299
-0.0113529
-0.0115491
-0.0114825
-0.0115194
-0.0114591
-0.0114135
-0.0113456
-0.0113962
-0.0113332
-0.0112746
-0.0112093
-0.0112846
-0.0112262
-0.0111584
-0.0111208
-0.0111792
-0.0111438
-0.0112849
-0.011232
-0.0112771
-0.0112277
-0.0111891
-0.0111576
-0.0111886
-0.0111629
-0.0109042
-0.0109299
-0.0109688
-0.010973
-0.0109546
-0.010964
-0.0109794
-0.0109825
-0.0110206
-0.0110125
-0.0110618
-0.0110465
-0.0110087
-0.0110067
-0.0110366
-0.0110311
-0.0109484
-0.0109361
-0.0109745
-0.010968
-0.0109233
-0.0109125
-0.0109628
-0.0109605
-0.0110015
-0.0109985
-0.0110269
-0.011026
-0.0109984
-0.0110022
-0.0110293
-0.0110373
-0.0110931
-0.0110739
-0.0111155
-0.0110938
-0.0110602
-0.0110525
-0.0110775
-0.0110688
-0.0111301
-0.0111061
-0.0111388
-0.0111104
-0.011087
-0.0110784
-0.0110861
-0.0110795
-0.0110487
-0.0110491
-0.0110655
-0.0110669
-0.0110548
-0.0110657
-0.0110745
-0.0110874
-0.011076
-0.0110783
-0.0110785
-0.0110824
-0.0110878
-0.0111023
-0.0110943
-0.0111098

SCALARS U float
LOOKUP_TABLE default
0.0201754
0.0200955
0.0198486
0.0197876
0.020017
0.0197308
0.0204984
0.0203877
0.020279
0.0199432
0.019674
0.0198749
0.0196172
0.0201782
0.0200862
0.0207751
0.020636
0.0204974
0.0209758
0.0208181
0.020655
0.0203664
0.0202442
0.0204948
0.0203384
0.0198138
0.0195624
0.0197622
0.0195134
0.0200048
0.0199351
0.0197235
0.0194763
0.0197026
0.0194601
0.0198792
0.0198396
0.0201329
0.0200338
0.0201896
0.0200509
0.0199489
0.0198806
0.0199261
0.0198197
0.0210748
0.0209133
0.0207371
0.0210801
0.0209378
0.0207553
0.0205521
0.0203583
0.020542
0.0203013
0.0210559
0.0209229
0.0207254
0.021078
0.0209166
0.0206785
0.0204721
0.0201699
0.020365
0.0199824
0.0201637
0.0199733
0.0200467
0.019787
0.019795
0.0196382
0.0195357
0.0193093
0.0198367
0.0194848
0.019549
0.0190773
0.0191333
0.0188066
0.018587
0.0181072
0.0197057
0.0194769
0.0197396
0.0195398
0.0198198
0.0198239
0.01981
0.0196613
0.0199175
0.0198449
0.0198548
0.0199125
0.0198324
0.0198087
0.0197382
0.0196901
0.0198129
0.0198461
0.0196824
0.019719
0.0200537
0.0200783
0.020202
0.0203336
0.0199911
0.0200793
0.0203403
0.0205735
0.0204498
0.0207642
0.0201618
0.0202262
0.0199032
0.0199738
0.0197947
0.0198955
0.0200431
0.020098
0.020001
0.0200919
0.019516
0.0194455
0.0191321
0.0190355
0.0194416
0.019514
0.0190502
0.0191971
0.0185446
0.018403
0.0176984
0.0174588
0.0184432
0.0187089
0.0175077
0.0179414
0.0196557
0.0198438
0.0194667
0.0198181
0.0200441
0.0202219
0.0201888
0.0205172
0.0191876
0.0198051
0.0187517
0.0198015
0.0204394
0.0209739
0.0208466
0.0216585
0.0211496
0.0209332
0.0206326
0.0211841
0.0209323
0.0205832
0.0202437
0.0197685
0.0201312
0.0195727
0.021143
0.0208981
0.0205397
0.0210214
0.0208332
0.0205241
0.0200633
0.0194573
0.0200888
0.0195031
0.0192189
0.0185986
0.0189054
0.0181074
0.0179141
0.0171891
0.0171495
0.0160342
0.0186928
0.0177036
0.0187038
0.01757
0.0163983
0.0147592
0.015955
0.0139094
0.0208106
0.0207435
0.0205584
0.0205791
0.0206686
0.0206716
0.0202532
0.0197953
0.0205922
0.0204065
0.0202995
0.0205793
0.0208297
0.0200185
0.0204775
0.0209853
0.021066
0.0212997
0.0215693
0.0222958
0.0190986
0.0180177
0.0200423
0.0194101
0.0164555
0.0147205
0.0186072
0.0181936
0.0215263
0.0217698
0.0232502
0.0245657
0.0223143
0.0235259
0.0264313
0.0286146
0.0165116
0.016052
0.0148934
0.0140304
0.0160474
0.0167078
0.0138855
0.0148358
0.0130215
0.0117134
0.0119074
0.0107237
0.0114935
0.0127895
0.0109569
0.012691
0.0180428
0.0198067
0.0169244
0.0197778
0.0215302
0.0227649
0.0225725
0.0244716
0.0156317
0.0196122
0.0157457
0.0197792
0.0236423
0.0264773
0.0239992
0.0273686
0.0135342
0.0133882
0.0186078
0.019532
0.0143701
0.0163447
0.0206882
0.0218477
0.0249568
0.0260306
0.0302386
0.0308923
0.0266238
0.0259893
0.0303093
0.0278143
0.0187748
0.0211234
0.0221597
0.0213034
0.0234003
0.0256279
0.0202947
0.0201611
0.0234874
0.0197135
0.0236268
0.0186792
0.0160904
0.0139642
0.0138863
0.0102991
0.0205161
0.020882
0.0205457
0.0209291
0.0202615
0.0202766
0.0205446
0.0209151
0.0205567
0.0208753
0.0202746
0.0203131
0.0201271
0.0201368
0.0201523
0.0201842
0.0201274
0.0201656
0.0201826
0.0201976
0.0205948
0.0208251
0.0207068
0.02079
0.020407
0.0206681
0.0208126
0.020741
0.0206629
0.0205632
0.0209402
0.0207615
0.0202591
0.0206482
0.0202169
0.0205865
0.0211
0.020841
0.0211535
0.0209952
0.0203585
0.0204498
0.0207807
0.0209764
0.0205032
0.0205427
0.0211617
0.0213412
0.0213617
0.0216171
0.0221445
0.0223508
0.0218438
0.0220381
0.0224585
0.0225033
0.0205436
0.0206154
0.0214291
0.0211227
0.0208436
0.0210335
0.0207052
0.0209212
0.02203
0.0214524
0.022476
0.0219929
0.020791
0.0209678
0.0212028
0.0211851
0.0204241
0.0203412
0.0202821
0.0201659
0.0204457
0.0203267
0.0202444
0.0200552
0.0203097
0.0200207
0.0203902
0.0205994
0.0203675
0.0202576
0.0205277
0.0204332
0.0204793
0.0208772
0.0207275
0.0211634
0.0203373
0.0199898
0.0203074
0.0199466
0.0207
0.0206777
0.0202526
0.0198992
0.0201754
0.0198393
0.0206068
0.0204984
0.0210437
0.0210112
0.021306
0.0212495
0.0209154
0.0207751
0.0211344
0.0209758
0.0215305
0.022142
0.0216189
0.0218034
0.0220997
0.0218138
0.0211712
0.0209278
0.0210728
0.0207931
0.0212343
0.0217834
0.0207708
0.0207833
0.022792
0.0221164
0.0216109
0.021405
0.0211948
0.0212431
0.0212372
0.0210748
0.0211751
0.0210801
0.0209188
0.0210788
0.0212188
0.0211704
0.0210956
0.0210559
0.0211368
0.021078
0.0233246
0.023323
0.0251008
0.0246693
0.0231044
0.0228389
0.0237854
0.0228444
0.0273657
0.0264838
0.0287466
0.027826
0.02482
0.0231172
0.025713
0.0234832
0.0227461
0.0226421
0.0220815
0.0216051
0.0219884
0.0214154
0.021025
0.0204878
0.0217169
0.0207359
0.0217543
0.0207569
0.0202904
0.0204154
0.0206097
0.0209282
0.0269218
0.0265572
0.020739
0.0213694
0.0250167
0.0229377
0.0214733
0.0205976
0.0138816
0.0151422
0.00904403
0.00989263
0.0163894
0.0168742