# vtk DataFile Version 2.0
Gerris simulation version 1.3.2 (131206-155120)
ASCII
DATASET UNSTRUCTURED_GRID

POINTS 1089 float
-0.5 0.46875 0
-0.46875 0.46875 0
-0.5 0.5 0
-0.46875 0.5 0
-0.4375 0.46875 0
-0.4375 0.5 0
-0.5 0.4375 0
-0.46875 0.4375 0
-0.4375 0.4375 0
-0.40625 0.46875 0
-0.40625 0.5 0
-0.375 0.46875 0
-0.375 0.5 0
-0.40625 0.4375 0
-0.375 0.4375 0
-0.5 0.40625 0
-0.46875 0.40625 0
-0.4375 0.40625 0
-0.5 0.375 0
-0.46875 0.375 0
-0.4375 0.375 0
-0.40625 0.40625 0
-0.375 0.40625 0
-0.40625 0.375 0
-0.375 0.375 0
-0.34375 0.46875 0
-0.34375 0.5 0
-0.3125 0.46875 0
-0.3125 0.5 0
-0.34375 0.4375 0
-0.3125 0.4375 0
-0.28125 0.46875 0
-0.28125 0.5 0
-0.25 0.46875 0
-0.25 0.5 0
-0.28125 0.4375 0
-0.25 0.4375 0
-0.34375 0.40625 0
-0.3125 0.40625 0
-0.34375 0.375 0
-0.3125 0.375 0
-0.28125 0.40625 0
-0.25 0.40625 0
-0.28125 0.375 0
-0.25 0.375 0
-0.5 0.34375 0
-0.46875 0.34375 0
-0.4375 0.34375 0
-0.5 0.3125 0
-0.46875 0.3125 0
-0.4375 0.3125 0
-0.40625 0.34375 0
-0.375 0.34375 0
-0.40625 0.3125 0
-0.375 0.3125 0
-0.5 0.28125 0
-0.46875 0.28125 0
-0.4375 0.28125 0
-0.5 0.25 0
-0.46875 0.25 0
-0.4375 0.25 0
-0.40625 0.28125 0
-0.375 0.28125 0
-0.40625 0.25 0
-0.375 0.25 0
-0.34375 0.34375 0
-0.3125 0.34375 0
-0.34375 0.3125 0
-0.3125 0.3125 0
-0.28125 0.34375 0
-0.25 0.34375 0
-0.28125 0.3125 0
-0.25 0.3125 0
-0.34375 0.28125 0
-0.3125 0.28125 0
-0.34375 0.25 0
-0.3125 0.25 0
-0.28125 0.28125 0
-0.25 0.28125 0
-0.28125 0.25 0
-0.25 0.25 0
-0.21875 0.46875 0
-0.21875 0.5 0
-0.1875 0.46875 0
-0.1875 0.5 0
-0.21875 0.4375 0
-0.1875 0.4375 0
-0.15625 0.46875 0
-0.15625 0.5 0
-0.125 0.46875 0
-0.125 0.5 0
-0.15625 0.4375 0
-0.125 0.4375 0
-0.21875 0.40625 0
-0.1875 0.40625 0
-0.21875 0.375 0
-0.1875 0.375 0
-0.15625 0.40625 0
-0.125 0.40625 0
-0.15625 0.375 0
-0.125 0.375 0
-0.09375 0.46875 0
-0.09375 0.5 0
-0.0625 0.46875 0
-0.0625 0.5 0
-0.09375 0.4375 0
-0.0625 0.4375 0
-0.03125 0.46875 0
-0.03125 0.5 0
0 0.46875 0
0 0.5 0
-0.03125 0.4375 0
0 0.4375 0
-0.09375 0.40625 0
-0.0625 0.40625 0
-0.09375 0.375 0
-0.0625 0.375 0
-0.03125 0.40625 0
0 0.40625 0
-0.03125 0.375 0
0 0.375 0
-0.21875 0.34375 0
-0.1875 0.34375 0
-0.21875 0.3125 0
-0.1875 0.3125 0
-0.15625 0.34375 0
-0.125 0.34375 0
-0.15625 0.3125 0
-0.125 0.3125 0
-0.21875 0.28125 0
-0.1875 0.28125 0
-0.21875 0.25 0
-0.1875 0.25 0
-0.15625 0.28125 0
-0.125 0.28125 0
-0.15625 0.25 0
-0.125 0.25 0
-0.09375 0.34375 0
-0.0625 0.34375 0
-0.09375 0.3125 0
-0.0625 0.3125 0
-0.03125 0.34375 0
0 0.34375 0
-0.03125 0.3125 0
0 0.3125 0
-0.09375 0.28125 0
-0.0625 0.28125 0
-0.09375 0.25 0
-0.0625 0.25 0
-0.03125 0.28125 0
0 0.28125 0
-0.03125 0.25 0
0 0.25 0
-0.5 0.21875 0
-0.46875 0.21875 0
-0.4375 0.21875 0
-0.5 0.1875 0
-0.46875 0.1875 0
-0.4375 0.1875 0
-0.40625 0.21875 0
-0.375 0.21875 0
-0.40625 0.1875 0
-0.375 0.1875 0
-0.5 0.15625 0
-0.46875 0.15625 0
-0.4375 0.15625 0
-0.5 0.125 0
-0.46875 0.125 0
-0.4375 0.125 0
-0.40625 0.15625 0
-0.375 0.15625 0
-0.40625 0.125 0
-0.375 0.125 0
-0.34375 0.21875 0
-0.3125 0.21875 0
-0.34375 0.1875 0
-0.3125 0.1875 0
-0.28125 0.21875 0
-0.25 0.21875 0
-0.28125 0.1875 0
-0.25 0.1875 0
-0.34375 0.15625 0
-0.3125 0.15625 0
-0.34375 0.125 0
-0.3125 0.125 0
-0.28125 0.15625 0
-0.25 0.15625 0
-0.28125 0.125 0
-0.25 0.125 0
-0.5 0.09375 0
-0.46875 0.09375 0
-0.4375 0.09375 0
-0.5 0.0625 0
-0.46875 0.0625 0
-0.4375 0.0625 0
-0.40625 0.09375 0
-0.375 0.09375 0
-0.40625 0.0625 0
-0.375 0.0625 0
-0.5 0.03125 0
-0.46875 0.03125 0
-0.4375 0.03125 0
-0.5 0 0
-0.46875 0 0
-0.4375 0 0
-0.40625 0.03125 0
-0.375 0.03125 0
-0.40625 0 0
-0.375 0 0
-0.34375 0.09375 0
-0.3125 0.09375 0
-0.34375 0.0625 0
-0.3125 0.0625 0
-0.28125 0.09375 0
-0.25 0.09375 0
-0.28125 0.0625 0
-0.25 0.0625 0
-0.34375 0.03125 0
-0.3125 0.03125 0
-0.34375 0 0
-0.3125 0 0
-0.28125 0.03125 0
-0.25 0.03125 0
-0.28125 0 0
-0.25 0 0
-0.21875 0.21875 0
-0.1875 0.21875 0
-0.21875 0.1875 0
-0.1875 0.1875 0
-0.15625 0.21875 0
-0.125 0.21875 0
-0.15625 0.1875 0
-0.125 0.1875 0
-0.21875 0.15625 0
-0.1875 0.15625 0
-0.21875 0.125 0
-0.1875 0.125 0
-0.15625 0.15625 0
-0.125 0.15625 0
-0.15625 0.125 0
-0.125 0.125 0
-0.09375 0.21875 0
-0.0625 0.21875 0
-0.09375 0.1875 0
-0.0625 0.1875 0
-0.03125 0.21875 0
0 0.21875 0
-0.03125 0.1875 0
0 0.1875 0
-0.09375 0.15625 0
-0.0625 0.15625 0
-0.09375 0.125 0
-0.0625 0.125 0
-0.03125 0.15625 0
0 0.15625 0
-0.03125 0.125 0
0 0.125 0
-0.21875 0.09375 0
-0.1875 0.09375 0
-0.21875 0.0625 0
-0.1875 0.0625 0
-0.15625 0.09375 0
-0.125 0.09375 0
-0.15625 0.0625 0
-0.125 0.0625 0
-0.21875 0.03125 0
-0.1875 0.03125 0
-0.21875 0 0
-0.1875 0 0
-0.15625 0.03125 0
-0.125 0.03125 0
-0.15625 0 0
-0.125 0 0
-0.09375 0.09375 0
-0.0625 0.09375 0
-0.09375 0.0625 0
-0.0625 0.0625 0
-0.03125 0.09375 0
0 0.09375 0
-0.03125 0.0625 0
0 0.0625 0
-0.09375 0.03125 0
-0.0625 0.03125 0
-0.09375 0 0
-0.0625 0 0
-0.03125 0.03125 0
0 0.03125 0
-0.03125 0 0
0 0 0
0.03125 0.46875 0
0.03125 0.5 0
0.0625 0.46875 0
0.0625 0.5 0
0.03125 0.4375 0
0.0625 0.4375 0
0.09375 0.46875 0
0.09375 0.5 0
0.125 0.46875 0
0.125 0.5 0
0.09375 0.4375 0
0.125 0.4375 0
0.03125 0.40625 0
0.0625 0.40625 0
0.03125 0.375 0
0.0625 0.375 0
0.09375 0.40625 0
0.125 0.40625 0
0.09375 0.375 0
0.125 0.375 0
0.15625 0.46875 0
0.15625 0.5 0
0.1875 0.46875 0
0.1875 0.5 0
0.15625 0.4375 0
0.1875 0.4375 0
0.21875 0.46875 0
0.21875 0.5 0
0.25 0.46875 0
0.25 0.5 0
0.21875 0.4375 0
0.25 0.4375 0
0.15625 0.40625 0
0.1875 0.40625 0
0.15625 0.375 0
0.1875 0.375 0
0.21875 0.40625 0
0.25 0.40625 0
0.21875 0.375 0
0.25 0.375 0
0.03125 0.34375 0
0.0625 0.34375 0
0.03125 0.3125 0
0.0625 0.3125 0
0.09375 0.34375 0
0.125 0.34375 0
0.09375 0.3125 0
0.125 0.3125 0
0.03125 0.28125 0
0.0625 0.28125 0
0.03125 0.25 0
0.0625 0.25 0
0.09375 0.28125 0
0.125 0.28125 0
0.09375 0.25 0
0.125 0.25 0
0.15625 0.34375 0
0.1875 0.34375 0
0.15625 0.3125 0
0.1875 0.3125 0
0.21875 0.34375 0
0.25 0.34375 0
0.21875 0.3125 0
0.25 0.3125 0
0.15625 0.28125 0
0.1875 0.28125 0
0.15625 0.25 0
0.1875 0.25 0
0.21875 0.28125 0
0.25 0.28125 0
0.21875 0.25 0
0.25 0.25 0
0.28125 0.46875 0
0.28125 0.5 0
0.3125 0.46875 0
0.3125 0.5 0
0.28125 0.4375 0
0.3125 0.4375 0
0.34375 0.46875 0
0.34375 0.5 0
0.375 0.46875 0
0.375 0.5 0
0.34375 0.4375 0
0.375 0.4375 0
0.28125 0.40625 0
0.3125 0.40625 0
0.28125 0.375 0
0.3125 0.375 0
0.34375 0.40625 0
0.375 0.40625 0
0.34375 0.375 0
0.375 0.375 0
0.40625 0.46875 0
0.40625 0.5 0
0.4375 0.46875 0
0.4375 0.5 0
0.40625 0.4375 0
0.4375 0.4375 0
0.46875 0.46875 0
0.46875 0.5 0
0.5 0.46875 0
0.5 0.5 0
0.46875 0.4375 0
0.5 0.4375 0
0.40625 0.40625 0
0.4375 0.40625 0
0.40625 0.375 0
0.4375 0.375 0
0.46875 0.40625 0
0.5 0.40625 0
0.46875 0.375 0
0.5 0.375 0
0.28125 0.34375 0
0.3125 0.34375 0
0.28125 0.3125 0
0.3125 0.3125 0
0.34375 0.34375 0
0.375 0.34375 0
0.34375 0.3125 0
0.375 0.3125 0
0.28125 0.28125 0
0.3125 0.28125 0
0.28125 0.25 0
0.3125 0.25 0
0.34375 0.28125 0
0.375 0.28125 0
0.34375 0.25 0
0.375 0.25 0
0.40625 0.34375 0
0.4375 0.34375 0
0.40625 0.3125 0
0.4375 0.3125 0
0.46875 0.34375 0
0.5 0.34375 0
0.46875 0.3125 0
0.5 0.3125 0
0.40625 0.28125 0
0.4375 0.28125 0
0.40625 0.25 0
0.4375 0.25 0
0.46875 0.28125 0
0.5 0.28125 0
0.46875 0.25 0
0.5 0.25 0
0.03125 0.21875 0
0.0625 0.21875 0
0.03125 0.1875 0
0.0625 0.1875 0
0.09375 0.21875 0
0.125 0.21875 0
0.09375 0.1875 0
0.125 0.1875 0
0.03125 0.15625 0
0.0625 0.15625 0
0.03125 0.125 0
0.0625 0.125 0
0.09375 0.15625 0
0.125 0.15625 0
0.09375 0.125 0
0.125 0.125 0
0.15625 0.21875 0
0.1875 0.21875 0
0.15625 0.1875 0
0.1875 0.1875 0
0.21875 0.21875 0
0.25 0.21875 0
0.21875 0.1875 0
0.25 0.1875 0
0.15625 0.15625 0
0.1875 0.15625 0
0.15625 0.125 0
0.1875 0.125 0
0.21875 0.15625 0
0.25 0.15625 0
0.21875 0.125 0
0.25 0.125 0
0.03125 0.09375 0
0.0625 0.09375 0
0.03125 0.0625 0
0.0625 0.0625 0
0.09375 0.09375 0
0.125 0.09375 0
0.09375 0.0625 0
0.125 0.0625 0
0.03125 0.03125 0
0.0625 0.03125 0
0.03125 0 0
0.0625 0 0
0.09375 0.03125 0
0.125 0.03125 0
0.09375 0 0
0.125 0 0
0.15625 0.09375 0
0.1875 0.09375 0
0.15625 0.0625 0
0.1875 0.0625 0
0.21875 0.09375 0
0.25 0.09375 0
0.21875 0.0625 0
0.25 0.0625 0
0.15625 0.03125 0
0.1875 0.03125 0
0.15625 0 0
0.1875 0 0
0.21875 0.03125 0
0.25 0.03125 0
0.21875 0 0
0.25 0 0
0.28125 0.21875 0
0.3125 0.21875 0
0.28125 0.1875 0
0.3125 0.1875 0
0.34375 0.21875 0
0.375 0.21875 0
0.34375 0.1875 0
0.375 0.1875 0
0.28125 0.15625 0
0.3125 0.15625 0
0.28125 0.125 0
0.3125 0.125 0
0.34375 0.15625 0
0.375 0.15625 0
0.34375 0.125 0
0.375 0.125 0
0.40625 0.21875 0
0.4375 0.21875 0
0.40625 0.1875 0
0.4375 0.1875 0
0.46875 0.21875 0
0.5 0.21875 0
0.46875 0.1875 0
0.5 0.1875 0
0.40625 0.15625 0
0.4375 0.15625 0
0.40625 0.125 0
0.4375 0.125 0
0.46875 0.15625 0
0.5 0.15625 0
0.46875 0.125 0
0.5 0.125 0
0.28125 0.09375 0
0.3125 0.09375 0
0.28125 0.0625 0
0.3125 0.0625 0
0.34375 0.09375 0
0.375 0.09375 0
0.34375 0.0625 0
0.375 0.0625 0
0.28125 0.03125 0
0.3125 0.03125 0
0.28125 0 0
0.3125 0 0
0.34375 0.03125 0
0.375 0.03125 0
0.34375 0 0
0.375 0 0
0.40625 0.09375 0
0.4375 0.09375 0
0.40625 0.0625 0
0.4375 0.0625 0
0.46875 0.09375 0
0.5 0.09375 0
0.46875 0.0625 0
0.5 0.0625 0
0.40625 0.03125 0
0.4375 0.03125 0
0.40625 0 0
0.4375 0 0
0.46875 0.03125 0
0.5 0.03125 0
0.46875 0 0
0.5 0 0
-0.5 -0.03125 0
-0.46875 -0.03125 0
-0.4375 -0.03125 0
-0.5 -0.0625 0
-0.46875 -0.0625 0
-0.4375 -0.0625 0
-0.40625 -0.03125 0
-0.375 -0.03125 0
-0.40625 -0.0625 0
-0.375 -0.0625 0
-0.5 -0.09375 0
-0.46875 -0.09375 0
-0.4375 -0.09375 0
-0.5 -0.125 0
-0.46875 -0.125 0
-0.4375 -0.125 0
-0.40625 -0.09375 0
-0.375 -0.09375 0
-0.40625 -0.125 0
-0.375 -0.125 0
-0.34375 -0.03125 0
-0.3125 -0.03125 0
-0.34375 -0.0625 0
-0.3125 -0.0625 0
-0.28125 -0.03125 0
-0.25 -0.03125 0
-0.28125 -0.0625 0
-0.25 -0.0625 0
-0.34375 -0.09375 0
-0.3125 -0.09375 0
-0.34375 -0.125 0
-0.3125 -0.125 0
-0.28125 -0.09375 0
-0.25 -0.09375 0
-0.28125 -0.125 0
-0.25 -0.125 0
-0.5 -0.15625 0
-0.46875 -0.15625 0
-0.4375 -0.15625 0
-0.5 -0.1875 0
-0.46875 -0.1875 0
-0.4375 -0.1875 0
-0.40625 -0.15625 0
-0.375 -0.15625 0
[...]
POINT_DATA 1089
SCALARS T float
LOOKUP_TABLE default
0
0
0
0
0
0
0
0
0
0
0
0
0
0
0
0
0
0
0
0
0
0
0
0
0
0
0
0
0
0
0
0
0
0
0
0
0
0
0
0
0
0
0
0
0
0
0
0
0
0
0
0
0
0
0
0
0
0
0
0
0
0
0
0
0
0
0
0
0
0
0
0
0
0
0
0
0
0
0
0
0
0
0
0
0
0
0
0
0
0
0
0
0
0
0
0
0
0
0
0
0
0
0
0
0
0
0
0
0
0
0
0
0
0
0
0
0
0
0
0
0
0
0
0
0
0
0
0
0
0
0
0
0
0
0
0
0
0
0
0
0
0
0
0
0
0
0
0
0
0
0
0
0
0
0
0
0
0
0
0
0
0
0
0
0
0
0
0
0
0
0
0
0
0
0
0
0
0
0
0
0
0
0
0
0
0
0
0
0
0
0
0
0
0
0
0
0
0
0
0
0
0
0
0
0
0
0
0.000823932
0.0971146
0
0
0
0
0
0
0
0
0
0
0.280821
0.399171
0
0
0.440798
0.457092
0
0
0
0
0
0
0
0
0
0
0
0
0
0
0
0
0
0
0
0
0
0
0
0
0
0
0
0
0
0
0
0
0
0
0
0
0
0
0
0
0
0
0.463759
0.464724
0
0
0.447695
0.363829
0
0
0
0
0
0
0
0
0
0
0.164725
0.0166901
0
0
0
0
0
0
0
0
0
0
0
0
0
0
0
0
0
0
0
0
0
0
0
0
0
0
0
0
0
0
0
0
0
0
0
0
0
0
0
0
0
0
0
0
0
0
0
0
0
0
0
0
0
0
0
0.0894611
0
0
0.2901
0.384106
0
0
0
0
0
0
0
0
0
0
0.234462
0.0509956
0
0
0
0
0
0
0
0
0
0
0
0
0
0
0
0
0
0
0
0
0
0
0
0
0
0
0
0
0
0
0
0
0
0
0
0
0
0
0
0
0
0
0
0
0
0
0
0
0
0
0
0
0
0
0
0
0
0
0
0
0
0
0
0
0
0
0
0
0
0
0
0
0
0
0
0
0.043309
0.379401
0.139953
0.636585
0.786731
0.884106
0.996631
1
0.225416
0.725416
0.256853
0.756853
1
1
1
1
0.704847
0.282907
0.970385
0.524375
0.0115265
0
0.0539901
0
1
0.594581
0.998222
0.567289
0.0945811
0
0.0690668
0
0.182695
0.678353
0.0546132
0.350462
0.995659
1
0.679701
0.738178
0
0.0501903
0
0
0.184043
0.238178
0
0
0.918368
0.43544
0.533295
0.179093
0.0170729
0
0.000123683
0
0.113149
0.00882399
0
0
0
0
0
0
0
0
0
0
0
0
0
0
0
0
0
0
0
0
0
0
0
0
0
0
0
0
0
0
0
0
0
0
0
0
0
0
0
0
0
0
0
0
0
0
0
0
0
0
0
0
0
0
0
0
0
0
0
0
0
0
0
0
0
0
0
0
0
0
0
0
0
0
0
0.0217592
0.128689
0.47498
0.393284
0.871524
0
0
0.101563
0
0
0.179787
0.595223
0.993659
0.679787
1
0.780821
0.899171
1
1
0.940798
0.957092
1
1
1
1
1
1
1
1
1
1
0
0
0.179698
0
0
0.101321
0.679698
1
0.595141
0.99382
0
0
0.0216061
0
0
0
0.392654
0.871048
0.128
0.476466
1
1
1
1
1
1
1
1
1
1
0.788303
0.909176
1
1
0.948844
0.965035
0.963759
0.964724
1
1
0.947695
0.863829
1
1
1
1
1
1
1
1
1
1
0.607678
0.214693
0.942953
0.528447
0.00504908
0
0.0854937
0
1
0.731655
1
0.833451
0.231655
0
0.333451
0
1
1
1
1
1
1
1
1
1
1
0.980238
0.993954
1
1
0.984305
0.908878
1
0.857998
1
0.79927
0.357999
0
0.29927
0
0.976995
0.624728
0.693188
0.29359
0.147733
0
0.0242197
0
0
0
0
0
0
0
0.000771889
0.0992375
0
0
0
0
0
0
0
0
0
0
0
0
0.288303
0.409176
0
0
0.448845
0.465035
0
0
0
0
0
0
0
0
0
0
0
0
0
0
0
0
0
0
0
0
0
0
0
0
0
0
0
0
0
0
0
0
0
0
0
0
0
0
0
0
0
0
0
0
0
0
0.480238
0.49429
0
0.000335542
0.485001
0.409238
0.000696055
0.000360513
0
0
0
0
0
0
0
0
0.216193
0.0423752
0
0
0
0
0
0
0
0
0
0
0
0
0
0
0
0
0
0
0
0
0
0
0
0
0
0
0
0
0
0
0
0
0
0
0
0
0
0
0
0
0
0
0
0
0
0
0
0
0
0
0
0
0.00645417
0.0525633
0
0.000780603
0
0.0788914
0.192346
0.480054
0.514003
0.927472
0
0
0.0461091
0
0
0
0
0
0.296806
0.00831781
0.584386
0.0928481
0
0
0.000822228
0
0
0.238909
0
0.233344
0.738909
0.999981
0.729381
0.996037
0
0.0725464
0
1.92823e-09
0.355267
0.624392
0.0366832
0.128354
0.833689
0.383319
0.947801
0.502473
0.0496109
0
0.0546721
0
0.54924
0.213453
0.10144
0.00976862
0.00588348
0
0
0
0
0
0
0
0
0
0
0
0
0
0
0
0
0
0
0
0
0
0
0
0
0
0
0
0
0
0
0
0
0
0
0
0
0
0
0
0
0
0
0
0
0
0
0
0
0
0
0
0
0
0
0
0
0
0
0
0
0
0
0
0
0
0
0
0
0
0
0
0
0
0
0
0
0
0
0
0
0
0
0
0
0
0
0
0
0
0
0
0
0
0
0
0
0
0
0
0
0
0
0
0
0
0
0
0
0
0
0
0
0
0
0
0
0
0
0
0
0
0
0
0
0
0
0
0
0
0
0
0
0
0
0
0
0
0
0
0
0
0
0
0
0
0
0
0
0
0
0
0
0
0
0
0
0
0
0
0
0
0
0
0
0
0
0
0
0
0
0
0
0
0
0
0
0
0
0
0
0
0
0
0
0
0
0
0
0
0
0
0
0
0
0

SCALARS P float
LOOKUP_TABLE default
-0.0106953
-0.010335
-0.0111337
-0.0107919
-0.0098999
-0.0103613
-0.0103029
-0.00992179
-0.0094845
-0.00938636
-0.00981457
-0.00879733
-0.00913964
-0.00899484
-0.00846377
-0.00993314
-0.00953618
-0.00909472
-0.00957682
-0.00916707
-0.00871736
-0.00861734
-0.00811921
-0.00823927
-0.00775072
-0.00815956
-0.00835866
-0.00752761
-0.00753913
-0.00791883
-0.00740623
-0.00698527
-0.00680213
-0.00663102
-0.00630237
-0.00698877
-0.00673538
-0.00762845
-0.00718662
-0.00728121
-0.00687107
-0.00684602
-0.0066598
-0.00656837
-0.00641878
-0.00922786
-0.00880828
-0.00834562
-0.00889092
-0.00846467
-0.00798422
-0.00785345
-0.00735206
-0.0074643
-0.00692744
-0.00857793
-0.0081495
-0.00764724
-0.00831222
-0.00788799
-0.00736219
-0.00708621
-0.00649083
-0.00674905
-0.0060733
-0.00687347
-0.00645964
-0.00640965
-0.00595767
-0.00615934
-0.006016
-0.00562519
-0.00545837
-0.0059024
-0.00537503
-0.00538098
-0.00473524
-0.00497213
-0.00474912
-0.00421599
-0.00390032
-0.00653321
-0.00613984
-0.00670951
-0.0063343
-0.00669645
-0.00688732
-0.0071261
-0.00682495
-0.00770254
-0.00747544
-0.00728746
-0.00784609
-0.00666754
-0.00688142
-0.00645568
-0.00668835
-0.00728876
-0.00785619
-0.00710857
-0.0076946
-0.00835871
-0.00816426
-0.00904211
-0.00882802
-0.00850999
-0.00924048
-0.0097159
-0.00942711
-0.0103617
-0.0099627
-0.010007
-0.0107801
-0.00855049
-0.00934788
-0.00842679
-0.00929895
-0.0102275
-0.0111569
-0.0103065
-0.0114324
-0.00605998
-0.00629817
-0.00548721
-0.00571656
-0.00672471
-0.00732457
-0.00613869
-0.00673902
-0.00473933
-0.00494666
-0.00383056
-0.00400909
-0.00535548
-0.005942
-0.00440045
-0.00494916
-0.00808739
-0.00902631
-0.0075044
-0.00847264
-0.0101728
-0.0115286
-0.00972379
-0.0112542
-0.00668076
-0.00764016
-0.00559008
-0.0063761
-0.00894275
-0.0105601
-0.00747901
-0.00902201
-0.00812877
-0.00771832
-0.00717171
-0.00807382
-0.00769129
-0.00713601
-0.00650051
-0.00572369
-0.00641042
-0.0055137
-0.00819888
-0.00787085
-0.00733525
-0.00856003
-0.00832323
-0.00785574
-0.00657462
-0.00554324
-0.00711521
-0.00598294
-0.00488679
-0.00406205
-0.00447828
-0.00338472
-0.00336076
-0.00290647
-0.00240395
-0.00174961
-0.00423601
-0.00272906
-0.00433637
-0.00216599
-0.00130917
-0.000358124
-5.17124e-06
0.00141699
-0.00919045
-0.00910806
-0.00880973
-0.0100641
-0.0102618
-0.0103752
-0.00824313
-0.00711999
-0.010399
-0.00974235
-0.0110685
-0.0116515
-0.0123823
-0.0121096
-0.0132246
-0.015029
-0.0133788
-0.0136187
-0.0182407
-0.0116303
-0.00499704
-0.00173846
-0.00714759
-0.00179433
0.00150394
0.00353361
0.00380192
0.00718957
-0.0101357
-0.00165159
0.00658029
0.0184327
0.00654864
0.0111146
0.0214266
0.0227962
-0.00275996
-0.00292264
-0.00151221
-0.0016916
-0.00332686
-0.00385885
-0.00217179
-0.00269589
-1.44885e-05
-0.000289115
0.00186725
0.00127543
-0.00101889
-0.00170283
-0.000184985
-0.00165496
-0.00437954
-0.00491449
-0.00291689
-0.00265716
-0.00574964
-0.00734636
-0.00158806
-4.05052e-05
-0.00168484
-0.00059729
-0.0022224
-0.00172849
0.002566
0.00761292
0.000114884
0.00284997
0.00408025
0.00297217
0.00791956
0.00565774
0.000272838
-0.00266736
0.000377593
-0.00518547
0.0121321
0.00882622
0.0235404
0.0233797
0.000622043
-0.00867431
0.0226021
0.0147039
-0.00435085
-0.00502907
-0.00783504
-0.00864246
-0.00560819
-0.00704748
-0.00950982
-0.0116973
-0.0126142
-0.0124046
-0.005092
-0.0164652
-0.0119122
-0.0124904
-0.0142159
-0.0129757
-0.0109668
-0.0104456
-0.0114993
-0.0108774
-0.0115314
-0.0121867
-0.011926
-0.0112647
-0.012229
-0.0115869
-0.0126657
-0.0129491
-0.0121057
-0.0129416
-0.0126619
-0.0137579
-0.0134981
-0.0137597
-0.0144073
-0.0146207
-0.0124149
-0.0118437
-0.0124843
-0.0120257
-0.0130581
-0.0129996
-0.0124523
-0.0121248
-0.0123538
-0.0121582
-0.0128125
-0.012563
-0.0137744
-0.0135532
-0.0145044
-0.0140726
-0.0131727
-0.0127449
-0.0134562
-0.0128309
-0.0131056
-0.0145436
-0.0132339
-0.0151989
-0.0153034
-0.015429
-0.0160751
-0.0160386
-0.013192
-0.0162035
-0.0133874
-0.00800055
-0.0173613
-0.0170305
0.0171767
0.0309728
-0.0151229
-0.0144392
-0.0155398
-0.0145636
-0.0135737
-0.0127532
-0.013396
-0.0123832
-0.0162276
-0.0148025
0.0106337
-0.0109251
-0.013077
-0.0117533
-0.0129612
-0.0107461
-0.0122135
-0.0121407
-0.0120501
-0.0120846
-0.0122878
-0.0120118
-0.0118714
-0.0119973
-0.0116811
-0.0118858
-0.0117414
-0.0114767
-0.0123225
-0.0119328
-0.0122628
-0.0117716
-0.0115773
-0.011249
-0.0113495
-0.010978
-0.011476
-0.0117489
-0.0112505
-0.0115836
-0.0112101
-0.0109334
-0.0109941
-0.0113796
-0.0106953
-0.0111141
-0.0106348
-0.0103029
-0.0109336
-0.0106184
-0.0106325
-0.0102954
-0.010289
-0.00993314
-0.00994808
-0.00957682
-0.0120588
-0.0114895
-0.0116169
-0.0110232
-0.0110293
-0.0106428
-0.0105809
-0.0102262
-0.0109417
-0.0103693
-0.00991221
-0.00946129
-0.0100037
-0.00973168
-0.00927544
-0.00915859
-0.0102925
-0.00995451
-0.00990769
-0.00959637
-0.0096049
-0.00922786
-0.00926301
-0.00889092
-0.0094847
-0.00922957
-0.00903507
-0.00887176
-0.0089327
-0.00857793
-0.00863514
-0.00831222
-0.00614345
0.0321725
0.0138073
0.068209
0.0855485
0.0998308
0.112877
0.115844
0.0294607
0.0747903
0.0283601
0.0781847
0.105626
0.109482
0.107252
0.108896
0.0731062
0.01851
0.108007
0.0523575
-0.0112825
-0.00946069
-0.000483607
-0.00540813
0.10453
0.0612654
0.102371
0.0591446
0.012797
0.00110988
0.0128238
0.00236375
0.0106978
0.0711162
-0.00980558
0.0270721
0.114127
0.113455
0.0722226
0.0786962
-0.0156724
-0.012278
-0.0137503
-0.0153977
0.00488161
0.0112644
-0.0169737
-0.0190045
0.0981879
0.044538
0.0495013
0.00814571
0.00126685
-0.0024802
-0.00844866
-0.00724891
-0.00711325
-0.0168385
-0.0205372
-0.0178346
-0.0119314
-0.0102668
-0.0138806
-0.0124158
-0.00849146
-0.00827154
-0.00604042
-0.0067597
-0.00840325
-0.00853332
-0.00746677
-0.00794434
-0.00260917
-0.00494764
-0.0018383
-0.00454119
-0.00648844
-0.00743522
-0.00630058
-0.00740594
-0.0085914
-0.00855676
-0.00822648
-0.00834125
-0.00840421
-0.00812877
-0.00828798
-0.00807382
-0.0079904
-0.00827335
-0.00807751
-0.00845549
-0.00833353
-0.00819888
-0.00860515
-0.00856003
-0.00429615
-0.00590971
-0.00705331
-0.00761607
-0.00713563
-0.00798684
-0.00827826
-0.0088297
-0.00948088
-0.00939219
-0.0114814
-0.0110094
-0.00958158
-0.00983239
-0.0108531
-0.0108525
-0.00855849
-0.00892777
-0.00926023
-0.00959453
-0.00913064
-0.00919045
-0.00985282
-0.0100641
-0.0100973
-0.0103724
-0.010959
-0.0111671
-0.0106809
-0.0110685
-0.0115198
-0.0121096
-0.0128235
-0.0142065
-0.0168028
-0.0128243
-0.0136812
-0.0145524
-0.0112722
0.0151974
0.00965033
0.0453765
-0.01239
-0.0122494
-0.00751323
-0.0120989
-0.0111466
-0.0012679
0.0242319
0.0521441
0.029207
0.0509623
0.0405394
0.0437191
0.0545713
0.049412
0.038865
0.036108
0.0445182
0.0418811
0.0521543
0.0498982
0.0513449
0.050399
0.0474322
0.0459853
0.0488583
0.0477662
-0.0124453
-0.0114226
-0.00143574
-0.0135259
-0.013279
-0.00828454
0.0292461
0.0511461
0.0243449
0.0528659
-0.0148748
-0.0158264
-0.0169029
-0.0157199
-0.0173469
-0.0205041
0.00860182
0.0461277
-0.0146622
0.0138017
0.0515372
0.0505741
0.0527592
0.050353
0.0489554
0.0477567
0.047568
0.0457684
0.0554176
0.0497492
0.0406851
0.0437
0.0442834
0.0411412
0.0377797
0.0342141
0.0361575
0.0394497
0.0417311
0.0443063
0.0468182
0.0482527
0.0495651
0.0550556
0.045878
0.0472493
0.0476122
0.0485508
0.0499417
0.052559
0.0502651
0.0516941
0.0269773
-0.00320706
0.0519249
0.0218054
-0.0139975
-0.0119379
-0.00612202
-0.00874194
0.0534065
0.0350011
0.051907
0.0404421
0.00587304
-0.00447198
0.0132236
-0.00202335
0.0475449
0.0485483
0.0455043
0.0471535
0.0503623
0.0519391
0.0500939
0.053042
0.0407666
0.0439095
0.034289
0.0388933
0.0492832
0.0547831
0.0467074
0.049158
0.0526107
0.0424637
0.0551376
0.0401814
0.0137179
-0.0045636
0.00723989
-0.0101627
0.0567161
0.0285093
0.0344993
0.00207994
-0.0067889
-0.0137513
-0.0163934
-0.0138339
-0.0156574
-0.0170052
-0.0191868
-0.0150656
-0.0158793
-0.0169194
-0.0229108
-0.0155406
-0.0182109
-0.0182778
-0.0143281
-0.0147448
-0.0151463
-0.0135424
-0.0136515
-0.0136212
-0.0153939
-0.0146888
-0.0132933
-0.0122332
0.00409697
0.0164221
-0.0146401
-0.00585814
0.019386
0.0206107
0.00327361
0.00841675
-0.0120072
-0.00651454
-0.0100402
-0.00662167
-0.00048398
0.00323185
-0.00310662
-0.000879885
-0.0128107
-0.0127201
-0.0124631
-0.012165
-0.0119518
-0.0115856
-0.011926
-0.0108929
-0.010995
-0.010077
-0.0116058
-0.011318
-0.0109035
-0.0111141
-0.0107919
-0.0103613
-0.0103228
-0.00953384
-0.00981457
-0.00913964
-0.00922198
-0.00695797
-0.00879617
-0.00723922
-0.00466956
-0.00315754
-0.00572367
-0.00469704
-0.00854424
-0.00743678
-0.00835866
-0.00753913
-0.00640179
-0.00569643
-0.00680213
-0.00630237
0.0214851
0.0217457
0.00951437
0.0053735
0.0217118
0.0160919
-0.00233827
-0.00982058
0.0041036
0.00135151
-0.00030916
-0.0016895
-0.0037368
-0.00834781
-0.00445462
-0.00718077
-0.00138948
-0.0153292
-0.01367
-0.0139124
-0.0154015
-0.0123413
-0.0125741
-0.0109232
-0.0107904
-0.0112994
-0.00894603
-0.00970342
-0.0108194
-0.00999456
-0.00976259
-0.00951295
-0.0027461
-0.00352967
-0.00438693
-0.00483501
-0.00518664
-0.00692044
-0.00585461
-0.00700316
-0.00546716
-0.00573667
-0.00613984
-0.0063343
-0.0064011
-0.00722041
-0.00682495
-0.00747544
-0.00819969
-0.00895606
-0.00796999
-0.0086809
-0.00927167
-0.00935519
-0.00912894
-0.00941527
-0.00800352
-0.00867768
-0.00816426
-0.00882802
-0.00920879
-0.00963362
-0.00942711
-0.0099627
-0.0116213
-0.0128826
-0.00786291
-0.00885837
-0.0163751
-0.0207892
-0.0150499
-0.0169817
-0.00255248
-0.000332352
0.00136421
0.0166793
0.0279068
0.0828004
0.0923383
0.182254
-0.0218748
-0.0181134
-0.019451
-0.0206429
-0.0147418
-0.0136881
-0.016071
-0.0149873
0.0467527
-0.0161614
0.117587
0.0094034
-0.0157782
-0.0153549
-0.0104644
-0.0141732
-0.00445726
0.0365257
-0.0125367
0.0300129
0.127593
0.183873
0.123848
0.178013
-0.0130444
0.00215761
-0.0115237
-0.00939461
0.0589077
0.113822
0.00177976
0.0203906
0.15269
0.0640809
0.168256
0.0784177
-0.0037398
-0.0192038
-0.0107683
-0.0224775
0.0963323
0.0225824
0.0105517
-0.0130703
-0.0197674
-0.0185107
-0.0173468
-0.0162216
-0.0127719
-0.012165
-0.0139068
-0.0131855
-0.0118605
-0.0117178
-0.0127757
-0.0125006
-0.014335
-0.0137726
-0.0145505
-0.0144063
-0.0134141
-0.0130963
-0.0140819
-0.0136911
-0.0117094
-0.0118387
-0.0123538
-0.0123274
-0.0121653
-0.0128235
-0.0124522
-0.0128243
-0.012855
-0.0126701
-0.0133513
-0.0130293
-0.0125185
-0.01239
-0.0126515
-0.0120989
-0.0170614
-0.0156857
-0.0185272
-0.0163508
-0.0148382
-0.0142455
-0.0152329
-0.014594
-0.0169585
-0.0158042
-0.0155148
-0.0149816
-0.0151077
-0.0146817
-0.0146674
-0.0144981
-0.0138249
-0.0134636
-0.0142138
-0.013957
-0.0130496
-0.0124453
-0.0137392
-0.0135259
-0.0144574
-0.0143922
-0.0144636
-0.0145903
-0.0144934
-0.0148748
-0.0149498
-0.0157199
-0.0104117
-0.00859192
-0.00966508
-0.00844698
-0.0077001
-0.0107082
-0.00823294
-0.00964512
-0.00925017
-0.00853715
-0.00922232
-0.00895982
-0.00859605
-0.00947289
-0.00917321
-0.00970422
-0.0129379
-0.0133939
-0.0109857
-0.0118997
-0.0145182
-0.0145632
-0.0127622
-0.0132618
-0.0105177
-0.0114322
-0.0103906
-0.0111383
-0.0120827
-0.012602
-0.01169
-0.0121627
-0.00936318
-0.00937798
-0.00962763
-0.00982924
-0.00964706
-0.0100712
-0.0101443
-0.0105148
-0.00999472
-0.0103244
-0.0104456
-0.0108774
-0.0106757
-0.0110174
-0.0112647
-0.0115869
-0.0105985
-0.0111634
-0.0109257
-0.0113401
-0.0116026
-0.011975
-0.0116693
-0.0119343
-0.0113455
-0.0116382
-0.0118437
-0.0120257
-0.0118555
-0.0120081
-0.0121248
-0.0121582
-0.0144204
-0.0142758
-0.0134706
-0.0135853
-0.014208
-0.0142099
-0.0136856
-0.0138041
-0.0129069
-0.0131067
-0.0124885
-0.0127148
-0.0132606
-0.013409
-0.0128794
-0.0130193
-0.014292
-0.0145044
-0.0139531
-0.0141812
-0.0149167
-0.0156574
-0.0145311
-0.0150656
-0.0135608
-0.013751
-0.0131416
-0.0132684
-0.0139994
-0.0143281
-0.0134029
-0.0135424
-0.0122496
-0.0124423
-0.0121276
-0.0122556
-0.0125741
-0.0126719
-0.0123299
-0.0123679
-0.0121017
-0.0121438
-0.0121407
-0.0120846
-0.0121423
-0.0121084
-0.0119973
-0.0118858
-0.0127406
-0.0127918
-0.0123723
-0.0123472
-0.0128197
-0.0128107
-0.0122834
-0.012165
-0.0120425
-0.0119444
-0.0117489
-0.0115836
-0.011804
-0.0116058
-0.0113796
-0.0111337

SCALARS U float
LOOKUP_TABLE default
0.0267578
0.0278558
0.0271021
0.0285104
0.0287598
0.0298729
0.0266222
0.0274112
0.0279953
0.0293304
0.0308966
0.0293965
0.0313259
0.0282652
0.0281016
0.0266037
0.0271765
0.0275466
0.0267071
0.0271481
0.027392
0.0276225
0.0273143
0.0273547
0.0269589
0.0287952
0.0308896
0.0274388
0.0294013
0.0274024
0.0261281
0.0253405
0.0268439
0.022719
0.0235577
0.0243067
0.0220917
0.026552
0.0253179
0.0261479
0.0249121
0.0236441
0.0216463
0.0232834
0.0213603
0.0269295
0.0273186
0.0275163
0.0272555
0.0276794
0.0279149
0.0274359
0.0269993
0.027864
0.0274353
0.0276792
0.0282328
0.0286005
0.0281777
0.0289742
0.0295915
0.0286639
0.0283034
0.0298827
0.0296809
0.0261481
0.0248716
0.0265545
0.0252014
0.0231992
0.0212272
0.0234003
0.0212617
0.0274106
0.0259417
0.0288163
0.0271966
0.0239105
0.0214623
0.0248122
0.0218713
0.0198779
0.0199982
0.0171174
0.0165862
0.0196927
0.0173248
0.0147239
0.0137306
0.012903
0.011726
0.0151934
0.0134511
0.0194805
0.0173128
0.0192724
0.017161
0.0152972
0.0135506
0.0151511
0.013335
0.011767
0.0107328
0.0112896
0.0106701
0.0121835
0.011394
0.0113379
0.0112596
0.0117594
0.0122036
0.0110314
0.0110439
0.0121379
0.0110705
0.0117538
0.0104003
0.0103342
0.0099477
0.00926121
0.00838509
0.0190832
0.0169078
0.0189376
0.0165939
0.0148164
0.0128859
0.0143587
0.0122965
0.0188086
0.0161747
0.018699
0.0156358
0.0137375
0.0115643
0.0129627
0.0107667
0.0111254
0.00947956
0.010366
0.00838173
0.00785642
0.00617875
0.00595935
0.00256241
0.00954227
0.00720298
0.00882878
0.00621952
0.00341454
-0.00342981
0.000824061
-0.00871365
0.0287444
0.0299104
0.0309239
0.0293486
0.0310256
0.0326263
0.0316002
0.0316949
0.0339192
0.0345369
0.0299527
0.0322775
0.0347132
0.0304416
0.033527
0.0371119
0.0369704
0.0384808
0.0408509
0.0438144
0.0309293
0.029113
0.0340139
0.0319683
0.026192
0.0224815
0.0282553
0.0233511
0.0384222
0.036053
0.0444278
0.0414009
0.0311433
0.024452
0.0347204
0.0255733
0.030507
0.0344219
0.0394923
0.0296011
0.0342061
0.0408111
0.0452602
0.0500263
0.0486403
0.054389
0.0268856
0.0315149
0.038873
0.0216569
0.0250742
0.0318487
0.0474109
0.0510046
0.0398146
0.0417398
0.0507492
0.0456262
0.0519054
0.0394859
0.0363399
0.0252995
0.0260006
0.0188605
0.0404964
0.0177059
0.0348645
0.0231999
0.00282474
0.00725534
0.0155481
0.0149243
0.0184968
0.0147702
0.0180856
0.013324
0.0117923
0.00981743
0.00992848
0.00852763
0.0172333
0.0107618
0.0156208
0.00663842
0.00631905
0.00490049
3.53107e-05
-0.00287026
0.0088182
0.00817769
0.00976741
0.0140367
0.00675189
0.00715822
0.0232914
0.0390449
0.00785088
0.0159218
-0.000167751
0.00860493
0.0329462
0.0553862
0.0249877
0.0473157
0.0138363
0.00313143
0.0156787
0.0101595
-0.00640238
-0.012695
-0.00229996
-0.0163424
0.0213539
0.0293834
0.0161024
0.0155442
0.0187867
-0.00457301
0.00985333
-0.00138539
-0.0123141
-0.00580468
-0.0217952
-0.0188446
0.00324391
0.0151655
-0.0163423
-0.0188091
-0.0200854
-0.0211667
-0.0112804
-0.0130251
-0.0192961
-0.0247837
-0.0102496
-0.0117543
0.0124324
0.0132544
0.0132879
0.0142172
0.0114119
0.0122133
0.0143101
0.0149662
0.0154226
0.0154948
0.0135943
0.0154061
0.00997306
0.0106992
0.00784336
0.00830836
0.0126019
0.0154496
0.0110421
0.015711
0.0164678
0.0158861
0.01736
0.0162775
0.0171746
0.0185522
0.0181276
0.0167691
0.0188464
0.0173942
0.0195397
0.0202953
0.018193
0.0200795
0.0200026
0.0223861
0.0211841
0.0218613
0.0233202
0.0236665
0.00436999
0.00389157
-0.00239451
-0.00591643
0.00801982
0.0165072
0.000555388
0.0178738
-0.0147238
-0.0233576
-0.0221358
-0.0282558
-0.0123401
0.018796
-0.01303
0.0191944
0.0238677
0.0266182
0.0325056
0.0356119
0.0265029
0.0258523
0.0322817
0.0289333
0.0461185
0.0517971
0.0505362
0.0616011
0.0428223
0.0337094
0.0523275
0.0391222
0.0195793
0.0181672
0.0203669
0.019076
0.020945
0.0215839
0.0212371
0.0201136
0.0222015
0.0212771
0.0222736
0.0230409
0.0223388
0.0227712
0.0238084
0.0239387
0.0232517
0.0238176
0.0241645
0.0245221
0.0232591
0.0225613
0.0243945
0.0239581
0.0238875
0.0247943
0.0255793
0.0254506
0.0267578
0.0268812
0.0257257
0.0266222
0.0244691
0.0251827
0.0249987
0.0255607
0.025915
0.0266037
0.0261529
0.0267071
0.0253444
0.0250465
0.027012
0.0260267
0.0249778
0.0251315
0.0256058
0.0255712
0.0288102
0.02668
0.0306181
0.0268211
0.0258894
0.0257478
0.0256323
0.0255116
0.0254629
0.0259222
0.0258047
0.0262277
0.0264367
0.0269295
0.026741
0.0272555
0.025974
0.0264506
0.0258728
0.0265286
0.0270516
0.0276792
0.0273288
0.0281777
0.0126386