# vtk DataFile Version 2.0
Gerris simulation version 1.3.2 (131206-155120)
ASCII
DATASET UNSTRUCTURED_GRID

POINTS 1089 float
-0.5 0.46875 0
-0.46875 0.46875 0
-0.5 0.5 0
-0.46875 0.5 0
-0.4375 0.46875 0
-0.4375 0.5 0
-0.5 0.4375 0
-0.46875 0.4375 0
-0.4375 0.4375 0
-0.40625 0.46875 0
-0.40625 0.5 0
-0.375 0.46875 0
-0.375 0.5 0
-0.40625 0.4375 0
-0.375 0.4375 0
-0.5 0.40625 0
-0.46875 0.40625 0
-0.4375 0.40625 0
-0.5 0.375 0
-0.46875 0.375 0
-0.4375 0.375 0
-0.40625 0.40625 0
-0.375 0.40625 0
-0.40625 0.375 0
-0.375 0.375 0
-0.34375 0.46875 0
-0.34375 0.5 0
-0.3125 0.46875 0
-0.3125 0.5 0
-0.34375 0.4375 0
-0.3125 0.4375 0
-0.28125 0.46875 0
-0.28125 0.5 0
-0.25 0.46875 0
-0.25 0.5 0
-0.28125 0.4375 0
-0.25 0.4375 0
-0.34375 0.40625 0
-0.3125 0.40625 0
-0.34375 0.375 0
-0.3125 0.375 0
-0.28125 0.40625 0
-0.25 0.40625 0
-0.28125 0.375 0
-0.25 0.375 0
-0.5 0.34375 0
-0.46875 0.34375 0
-0.4375 0.34375 0
-0.5 0.3125 0
-0.46875 0.3125 0
-0.4375 0.3125 0
-0.40625 0.34375 0
-0.375 0.34375 0
-0.40625 0.3125 0
-0.375 0.3125 0
-0.5 0.28125 0
-0.46875 0.28125 0
-0.4375 0.28125 0
-0.5 0.25 0
-0.46875 0.25 0
-0.4375 0.25 0
-0.40625 0.28125 0
-0.375 0.28125 0
-0.40625 0.25 0
-0.375 0.25 0
-0.34375 0.34375 0
-0.3125 0.34375 0
-0.34375 0.3125 0
-0.3125 0.3125 0
-0.28125 0.34375 0
-0.25 0.34375 0
-0.28125 0.3125 0
-0.25 0.3125 0
-0.34375 0.28125 0
-0.3125 0.28125 0
-0.34375 0.25 0
-0.3125 0.25 0
-0.28125 0.28125 0
-0.25 0.28125 0
-0.28125 0.25 0
-0.25 0.25 0
-0.21875 0.46875 0
-0.21875 0.5 0
-0.1875 0.46875 0
-0.1875 0.5 0
-0.21875 0.4375 0
-0.1875 0.4375 0
-0.15625 0.46875 0
-0.15625 0.5 0
-0.125 0.46875 0
-0.125 0.5 0
-0.15625 0.4375 0
-0.125 0.4375 0
-0.21875 0.40625 0
-0.1875 0.40625 0
-0.21875 0.375 0
-0.1875 0.375 0
-0.15625 0.40625 0
-0.125 0.40625 0
-0.15625 0.375 0
-0.125 0.375 0
-0.09375 0.46875 0
-0.09375 0.5 0
-0.0625 0.46875 0
-0.0625 0.5 0
-0.09375 0.4375 0
-0.0625 0.4375 0
-0.03125 0.46875 0
-0.03125 0.5 0
0 0.46875 0
0 0.5 0
-0.03125 0.4375 0
0 0.4375 0
-0.09375 0.40625 0
-0.0625 0.40625 0
-0.09375 0.375 0
-0.0625 0.375 0
-0.03125 0.40625 0
0 0.40625 0
-0.03125 0.375 0
0 0.375 0
-0.21875 0.34375 0
-0.1875 0.34375 0
-0.21875 0.3125 0
-0.1875 0.3125 0
-0.15625 0.34375 0
-0.125 0.34375 0
-0.15625 0.3125 0
-0.125 0.3125 0
-0.21875 0.28125 0
-0.1875 0.28125 0
-0.21875 0.25 0
-0.1875 0.25 0
-0.15625 0.28125 0
-0.125 0.28125 0
-0.15625 0.25 0
-0.125 0.25 0
-0.09375 0.34375 0
-0.0625 0.34375 0
-0.09375 0.3125 0
-0.0625 0.3125 0
-0.03125 0.34375 0
0 0.34375 0
-0.03125 0.3125 0
0 0.3125 0
-0.09375 0.28125 0
-0.0625 0.28125 0
-0.09375 0.25 0
-0.0625 0.25 0
-0.03125 0.28125 0
0 0.28125 0
-0.03125 0.25 0
0 0.25 0
-0.5 0.21875 0
-0.46875 0.21875 0
-0.4375 0.21875 0
-0.5 0.1875 0
-0.46875 0.1875 0
-0.4375 0.1875 0
-0.40625 0.21875 0
-0.375 0.21875 0
-0.40625 0.1875 0
-0.375 0.1875 0
-0.5 0.15625 0
-0.46875 0.15625 0
-0.4375 0.15625 0
-0.5 0.125 0
-0.46875 0.125 0
-0.4375 0.125 0
-0.40625 0.15625 0
-0.375 0.15625 0
-0.40625 0.125 0
-0.375 0.125 0
-0.34375 0.21875 0
-0.3125 0.21875 0
-0.34375 0.1875 0
-0.3125 0.1875 0
-0.28125 0.21875 0
-0.25 0.21875 0
-0.28125 0.1875 0
-0.25 0.1875 0
-0.34375 0.15625 0
-0.3125 0.15625 0
-0.34375 0.125 0
-0.3125 0.125 0
-0.28125 0.15625 0
-0.25 0.15625 0
-0.28125 0.125 0
-0.25 0.125 0
-0.5 0.09375 0
-0.46875 0.09375 0
-0.4375 0.09375 0
-0.5 0.0625 0
-0.46875 0.0625 0
-0.4375 0.0625 0
-0.40625 0.09375 0
-0.375 0.09375 0
-0.40625 0.0625 0
-0.375 0.0625 0
-0.5 0.03125 0
-0.46875 0.03125 0
-0.4375 0.03125 0
-0.5 0 0
-0.46875 0 0
-0.4375 0 0
-0.40625 0.03125 0
-0.375 0.03125 0
-0.40625 0 0
-0.375 0 0
-0.34375 0.09375 0
-0.3125 0.09375 0
-0.34375 0.0625 0
-0.3125 0.0625 0
-0.28125 0.09375 0
-0.25 0.09375 0
-0.28125 0.0625 0
-0.25 0.0625 0
-0.34375 0.03125 0
-0.3125 0.03125 0
-0.34375 0 0
-0.3125 0 0
-0.28125 0.03125 0
-0.25 0.03125 0
-0.28125 0 0
-0.25 0 0
-0.21875 0.21875 0
-0.1875 0.21875 0
-0.21875 0.1875 0
-0.1875 0.1875 0
-0.15625 0.21875 0
-0.125 0.21875 0
-0.15625 0.1875 0
-0.125 0.1875 0
-0.21875 0.15625 0
-0.1875 0.15625 0
-0.21875 0.125 0
-0.1875 0.125 0
-0.15625 0.15625 0
-0.125 0.15625 0
-0.15625 0.125 0
-0.125 0.125 0
-0.09375 0.21875 0
-0.0625 0.21875 0
-0.09375 0.1875 0
-0.0625 0.1875 0
-0.03125 0.21875 0
0 0.21875 0
-0.03125 0.1875 0
0 0.1875 0
-0.09375 0.15625 0
-0.0625 0.15625 0
-0.09375 0.125 0
-0.0625 0.125 0
-0.03125 0.15625 0
0 0.15625 0
-0.03125 0.125 0
0 0.125 0
-0.21875 0.09375 0
-0.1875 0.09375 0
-0.21875 0.0625 0
-0.1875 0.0625 0
-0.15625 0.09375 0
-0.125 0.09375 0
-0.15625 0.0625 0
-0.125 0.0625 0
-0.21875 0.03125 0
-0.1875 0.03125 0
-0.21875 0 0
-0.1875 0 0
-0.15625 0.03125 0
-0.125 0.03125 0
-0.15625 0 0
-0.125 0 0
-0.09375 0.09375 0
-0.0625 0.09375 0
-0.09375 0.0625 0
-0.0625 0.0625 0
-0.03125 0.09375 0
0 0.09375 0
-0.03125 0.0625 0
0 0.0625 0
-0.09375 0.03125 0
-0.0625 0.03125 0
-0.09375 0 0
-0.0625 0 0
-0.03125 0.03125 0
0 0.03125 0
-0.03125 0 0
0 0 0
0.03125 0.46875 0
0.03125 0.5 0
0.0625 0.46875 0
0.0625 0.5 0
0.03125 0.4375 0
0.0625 0.4375 0
0.09375 0.46875 0
0.09375 0.5 0
0.125 0.46875 0
0.125 0.5 0
0.09375 0.4375 0
0.125 0.4375 0
0.03125 0.40625 0
0.0625 0.40625 0
0.03125 0.375 0
0.0625 0.375 0
0.09375 0.40625 0
0.125 0.40625 0
0.09375 0.375 0
0.125 0.375 0
0.15625 0.46875 0
0.15625 0.5 0
0.1875 0.46875 0
0.1875 0.5 0
0.15625 0.4375 0
0.1875 0.4375 0
0.21875 0.46875 0
0.21875 0.5 0
0.25 0.46875 0
0.25 0.5 0
0.21875 0.4375 0
0.25 0.4375 0
0.15625 0.40625 0
0.1875 0.40625 0
0.15625 0.375 0
0.1875 0.375 0
0.21875 0.40625 0
0.25 0.40625 0
0.21875 0.375 0
0.25 0.375 0
0.03125 0.34375 0
0.0625 0.34375 0
0.03125 0.3125 0
0.0625 0.3125 0
0.09375 0.34375 0
0.125 0.34375 0
0.09375 0.3125 0
0.125 0.3125 0
0.03125 0.28125 0
0.0625 0.28125 0
0.03125 0.25 0
0.0625 0.25 0
0.09375 0.28125 0
0.125 0.28125 0
0.09375 0.25 0
0.125 0.25 0
0.15625 0.34375 0
0.1875 0.34375 0
0.15625 0.3125 0
0.1875 0.3125 0
0.21875 0.34375 0
0.25 0.34375 0
0.21875 0.3125 0
0.25 0.3125 0
0.15625 0.28125 0
0.1875 0.28125 0
0.15625 0.25 0
0.1875 0.25 0
0.21875 0.28125 0
0.25 0.28125 0
0.21875 0.25 0
0.25 0.25 0
0.28125 0.46875 0
0.28125 0.5 0
0.3125 0.46875 0
0.3125 0.5 0
0.28125 0.4375 0
0.3125 0.4375 0
0.34375 0.46875 0
0.34375 0.5 0
0.375 0.46875 0
0.375 0.5 0
0.34375 0.4375 0
0.375 0.4375 0
0.28125 0.40625 0
0.3125 0.40625 0
0.28125 0.375 0
0.3125 0.375 0
0.34375 0.40625 0
0.375 0.40625 0
0.34375 0.375 0
0.375 0.375 0
0.40625 0.46875 0
0.40625 0.5 0
0.4375 0.46875 0
0.4375 0.5 0
0.40625 0.4375 0
0.4375 0.4375 0
0.46875 0.46875 0
0.46875 0.5 0
0.5 0.46875 0
0.5 0.5 0
0.46875 0.4375 0
0.5 0.4375 0
0.40625 0.40625 0
0.4375 0.40625 0
0.40625 0.375 0
0.4375 0.375 0
0.46875 0.40625 0
0.5 0.40625 0
0.46875 0.375 0
0.5 0.375 0
0.28125 0.34375 0
0.3125 0.34375 0
0.28125 0.3125 0
0.3125 0.3125 0
0.34375 0.34375 0
0.375 0.34375 0
0.34375 0.3125 0
0.375 0.3125 0
0.28125 0.28125 0
0.3125 0.28125 0
0.28125 0.25 0
0.3125 0.25 0
0.34375 0.28125 0
0.375 0.28125 0
0.34375 0.25 0
0.375 0.25 0
0.40625 0.34375 0
0.4375 0.34375 0
0.40625 0.3125 0
0.4375 0.3125 0
0.46875 0.34375 0
0.5 0.34375 0
0.46875 0.3125 0
0.5 0.3125 0
0.40625 0.28125 0
0.4375 0.28125 0
0.40625 0.25 0
0.4375 0.25 0
0.46875 0.28125 0
0.5 0.28125 0
0.46875 0.25 0
0.5 0.25 0
0.03125 0.21875 0
0.0625 0.21875 0
0.03125 0.1875 0
0.0625 0.1875 0
0.09375 0.21875 0
0.125 0.21875 0
0.09375 0.1875 0
0.125 0.1875 0
0.03125 0.15625 0
0.0625 0.15625 0
0.03125 0.125 0
0.0625 0.125 0
0.09375 0.15625 0
0.125 0.15625 0
0.09375 0.125 0
0.125 0.125 0
0.15625 0.21875 0
0.1875 0.21875 0
0.15625 0.1875 0
0.1875 0.1875 0
0.21875 0.21875 0
0.25 0.21875 0
0.21875 0.1875 0
0.25 0.1875 0
0.15625 0.15625 0
0.1875 0.15625 0
0.15625 0.125 0
0.1875 0.125 0
0.21875 0.15625 0
0.25 0.15625 0
0.21875 0.125 0
0.25 0.125 0
0.03125 0.09375 0
0.0625 0.09375 0
0.03125 0.0625 0
0.0625 0.0625 0
0.09375 0.09375 0
0.125 0.09375 0
0.09375 0.0625 0
0.125 0.0625 0
0.03125 0.03125 0
0.0625 0.03125 0
0.03125 0 0
0.0625 0 0
0.09375 0.03125 0
0.125 0.03125 0
0.09375 0 0
0.125 0 0
0.15625 0.09375 0
0.1875 0.09375 0
0.15625 0.0625 0
0.1875 0.0625 0
0.21875 0.09375 0
0.25 0.09375 0
0.21875 0.0625 0
0.25 0.0625 0
0.15625 0.03125 0
0.1875 0.03125 0
0.15625 0 0
0.1875 0 0
0.21875 0.03125 0
0.25 0.03125 0
0.21875 0 0
0.25 0 0
0.28125 0.21875 0
0.3125 0.21875 0
0.28125 0.1875 0
0.3125 0.1875 0
0.34375 0.21875 0
0.375 0.21875 0
0.34375 0.1875 0
0.375 0.1875 0
0.28125 0.15625 0
0.3125 0.15625 0
0.28125 0.125 0
0.3125 0.125 0
0.34375 0.15625 0
0.375 0.15625 0
0.34375 0.125 0
0.375 0.125 0
0.40625 0.21875 0
0.4375 0.21875 0
0.40625 0.1875 0
0.4375 0.1875 0
0.46875 0.21875 0
0.5 0.21875 0
0.46875 0.1875 0
0.5 0.1875 0
0.40625 0.15625 0
0.4375 0.15625 0
0.40625 0.125 0
0.4375 0.125 0
0.46875 0.15625 0
0.5 0.15625 0
0.46875 0.125 0
0.5 0.125 0
0.28125 0.09375 0
0.3125 0.09375 0
0.28125 0.0625 0
0.3125 0.0625 0
0.34375 0.09375 0
0.375 0.09375 0
0.34375 0.0625 0
0.375 0.0625 0
0.28125 0.03125 0
0.3125 0.03125 0
0.28125 0 0
0.3125 0 0
0.34375 0.03125 0
0.375 0.03125 0
0.34375 0 0
0.375 0 0
0.40625 0.09375 0
0.4375 0.09375 0
0.40625 0.0625 0
0.4375 0.0625 0
0.46875 0.09375 0
0.5 0.09375 0
0.46875 0.0625 0
0.5 0.0625 0
0.40625 0.03125 0
0.4375 0.03125 0
0.40625 0 0
0.4375 0 0
0.46875 0.03125 0
0.5 0.03125 0
0.46875 0 0
0.5 0 0
-0.5 -0.03125 0
-0.46875 -0.03125 0
-0.4375 -0.03125 0
-0.5 -0.0625 0
-0.46875 -0.0625 0
-0.4375 -0.0625 0
-0.40625 -0.03125 0
-0.375 -0.03125 0
-0.40625 -0.0625 0
-0.375 -0.0625 0
-0.5 -0.09375 0
-0.46875 -0.09375 0
-0.4375 -0.09375 0
-0.5 -0.125 0
-0.46875 -0.125 0
-0.4375 -0.125 0
-0.40625 -0.09375 0
-0.375 -0.09375 0
-0.40625 -0.125 0
-0.375 -0.125 0
-0.34375 -0.03125 0
-0.3125 -0.03125 0
-0.34375 -0.0625 0
-0.3125 -0.0625 0
-0.28125 -0.03125 0
-0.25 -0.03125 0
-0.28125 -0.0625 0
-0.25 -0.0625 0
-0.34375 -0.09375 0
-0.3125 -0.09375 0
-0.34375 -0.125 0
-0.3125 -0.125 0
-0.28125 -0.09375 0
-0.25 -0.09375 0
-0.28125 -0.125 0
-0.25 -0.125 0
-0.5 -0.15625 0
-0.46875 -0.15625 0
-0.4375 -0.15625 0
-0.5 -0.1875 0
-0.46875 -0.1875 0
-0.4375 -0.1875 0
-0.40625 -0.15625 0
-0.375 -0.15625 0
[...]
POINT_DATA 1089
SCALARS T float
LOOKUP_TABLE default
0
0
0
0
0
0
0
0
0
0
0
0
0
0
0
0
0
0
0
0
0
0
0
0
0
0
0
0
0
0
0
0
0
0
0
0
0
0
0
0
0
0
0
0
0
0
0
0
0
0
0
0
0
0
0
0
0
0
0
0
0
0
0
0
0
0
0
0
0
0
0
0
0
0
0
0
0
0
0
0
0
0
0
0
0
0
0
0
0
0
0
0
0
0
0
0
0
0
0
0
0
0
0
0
0
0
0
0
0
0
0
0
0
0
0
0
0
0
0
0
0
0
0
0
0
0
0
0
0
0
0
0
0
0
0
0
0
0
0
0
0
0
0
0
0
0
0
0
0
0
0
0
0
0
0
0
0
0
0
0
0
0
0
0
0
0
0
0
0
0
0
0
0
0
0
0
0
0
0
0
0
0
0
0
0
0
0
0
0
0
0
0
0
0
0
0
0
0
0
0
0
0
0
0
0
0
0
0
0
0
0
0
0
0
0
0
0.0110533
0
0
0
0
0.00657952
0.205234
0.12433
0.56193
0
0
0
0
0
0
0
0
0
0
0
0
0
0
0
0
0
0
0
0
0
0
0
0
0
0
0
0
0
0
0
0
0
0.0203901
0.155253
0.410485
0.104597
0.191656
0.600493
0.691656
0.592853
0.890095
0.937601
1
0.995895
1
1
1
0.196187
0.118092
0.696187
0.615413
0.029354
0
0.439462
0.183169
1
0.99732
1
1
0.910108
0.640635
1
0.957466
0
0
0
0
0
0
0
0
0
0
0
0
0
0
0
0
0
0
0
0
0
0
0
0
0
0
0
0
0
0
0
0
0
0
0
0
0
0
0
0
0
0
0
0
0
0
0
0
0
0
0
0
0
0.00298498
0
0.0128225
0
0.0287456
0.0835279
0.358571
0.125968
0.170498
0.622265
0.670498
0.308079
0.801392
0.484389
0.971566
0.996298
1
1
1
0
0
0
0
0
0
0
0
0
0
0
0
0
0
0
0
0
0
0
0
0
0
0
0
0
0
0
0
0
0
0
0
0
0
0
0
0
0
0
0
0.0791876
0.00591149
0.516795
0.203392
0
0
0.00987298
0
0.937608
0.548079
1
0.741473
0.110471
0
0.241473
0
0
0
0
0
0
0
0
0
0
0
0
0
0
0
0
0
0
0
0
0
0
0.00983989
0
2.3389e-06
0
0
0
0
0
0
0
0
0.465174
0.955334
0.258147
0.730644
1
1
0.9725
0.999589
0.0528097
0.279762
0
0.00445245
0.526906
0.580003
0.0544061
0.0804141
0
0
0.0203813
0
0
0
0
0
0.245452
0.017604
0.622518
0.165052
0
0
0
0
0
0
0
0
0
0
0
0
0
0
0
0
0
0
0
0.00546829
1
0.728827
0.904482
0.496682
0.228827
0
0.0917886
0
0.434943
0.15873
0.0304605
0
0.00383613
0
0
0
0
0
0
0
0
0
0
0
0
0
0
0
0
0
0
0
0
0
0
0
0
0
0
0
0
0
0.0412992
0.0478376
0
0
0.0120067
0
0
0
0
0
0
0
0
0
0
0
0
0
0
0
0
0
0
0
0
0
0
0
0
0
0
0
0
0
0
0
0
0
0
0
0
0
0
0.000269646
0
0.0164918
0.337284
0.837014
0.485756
0.969264
0
0.029764
0
0.0135538
0.529764
1
0.473869
0.960315
0
0
0
0
0
0
0
0
0
0
0
0
0
0
0
0
0
0
0
0
0
1.19744e-05
0
0
0.308641
0.808629
0.0991864
0.504107
0
0
0
0
0.000872566
0.156922
0
0.00112879
1
1
1
1
1
1
1
1
1
1
1
1
1
1
1
1
1
1
1
1
1
1
1
1
1
1
1
1
1
1
1
1
1
1
0.904921
1
1
1
1
1
0.5017
0.808045
0.0967789
0.308144
0.962394
1
0.489704
0.576557
1
1
1
1
1
1
1
0.920064
1
0.967862
0.579888
0.499547
0.824334
0.5296
0.325478
0.109535
0
0
0
0
0
0
0
0
0
0
0
0
0
0
0
0
0
0
0
0
0
0
0
0
0
0
0
0
0
0
0
0
0
0
0
0
0
0
0
0
0
0
0
0
0
0
0
0
0
0
0
0
0
0
0
0
0
0
0
0
0
0
0
0
0
0
0
0
0
0
0
0
0
9.95588e-05
0
0
0.0273097
0.0765573
0
0
0
0
0
0
0
0
0
0
0.0798878
0.0316849
0
0
0.00114426
0
0
0
0
0
0
0
0
0
0
0
0
0
0
0
0
0
0
0
0
0
0
0
0
0
0
0
0
0
0
0
0
0
0
0
0
0
0
0
0
0
0
0
0.887417
0.396079
0.989969
0.543285
0.0086619
0
0.053316
0
1
0.585127
0.980655
0.525525
0.0851269
0
0.0448701
0
0
0
0
0
0.0192828
0.22092
0.0990895
0.545258
0
0
0
0
0.124311
0.623341
0.0445046
0.378371
0.851113
0.35551
0.545905
0.12584
0.00439733
0
0
0
0.17851
0.00538248
0.00306372
0
0
0
0
0
0
0
0
0
0
0.0848367
0
0
0
0
0
0
0
0
0
0
0.487468
0.517957
0.946169
0.97012
0.275654
0.0435279
0.647881
0.177761
0.99903
1
0.757456
0.795349
0.736695
0.236695
0.478198
0.106439
0
0
0
0
0
0
0
0
0
0
0
0
0
0
0
0
0.258427
0.295349
0
0
0.125737
0.00397705
0
0
0
0
0
0
0
0
0
0
0
0
0
0
0
0
0
0
0
0
0
0
0
0
0
0
0
0
0
0
0
0
0
0
0
0
0
0
0
0
0
0
0
0
0
0
0
0
0
0
0
0
0
0
0
0
0
0
0
0
0
0
0
0
0
0
0
0
0
0
0
0
0
0
0
0
0
0
0
0
0
0
0
0
0
0
0
0
0
0
0
0
0
0
0
0
0
0
0
0
0
0
0
0
0
0
0
0
0
0
0
0
0
0
0
0
0
0
0
0
0
0
0
0
0
0
0
0
0
0
0
0
0
0
0
0
0
0
0
0
0
0
0
0
0
0
0
0
0
0
0
0
0
0

SCALARS P float
LOOKUP_TABLE default
-0.0107422
-0.0107222
-0.01076
-0.0107406
-0.0106943
-0.0107136
-0.0107307
-0.01071
-0.0106816
-0.0106582
-0.0106778
-0.0106137
-0.0106327
-0.0106452
-0.0106011
-0.0107243
-0.0107035
-0.0106749
-0.0107248
-0.0107043
-0.0106753
-0.0106383
-0.0105941
-0.0106381
-0.0105931
-0.0105612
-0.0105783
-0.0105013
-0.0105145
-0.0105498
-0.0104923
-0.0104358
-0.010443
-0.010367
-0.0103657
-0.0104304
-0.0103665
-0.0105432
-0.0104864
-0.0105413
-0.0104835
-0.0104257
-0.0103636
-0.0104218
-0.0103584
-0.0107342
-0.0107132
-0.0106833
-0.0107523
-0.0107308
-0.0106996
-0.010645
-0.0105984
-0.0106595
-0.0106106
-0.0107836
-0.010759
-0.0107252
-0.010828
-0.0107975
-0.0107599
-0.0106827
-0.0106309
-0.0107148
-0.0106599
-0.0105446
-0.0104841
-0.0105538
-0.0104888
-0.010419
-0.0103512
-0.010418
-0.0103427
-0.0105701
-0.0104992
-0.0105949
-0.0105171
-0.0104203
-0.0103341
-0.0104284
-0.0103276
-0.0102992
-0.0102876
-0.0102379
-0.0102156
-0.0103046
-0.0102491
-0.0101891
-0.0101578
-0.0101586
-0.0101222
-0.010205
-0.0101768
-0.0103037
-0.0102501
-0.010297
-0.0102418
-0.0102072
-0.0101792
-0.0101971
-0.0101672
-0.0101497
-0.0101136
-0.0101635
-0.0101325
-0.0101674
-0.0101778
-0.0101973
-0.0101746
-0.0102477
-0.0102344
-0.0102062
-0.0102508
-0.0101685
-0.0101765
-0.0101546
-0.0101607
-0.0102015
-0.0102427
-0.0101838
-0.0102226
-0.0102848
-0.0102244
-0.0102675
-0.0101979
-0.0101748
-0.0101411
-0.0101399
-0.0100997
-0.0102454
-0.0101618
-0.0102196
-0.0101155
-0.0100908
-0.0100412
-0.0100253
-0.00996105
-0.010126
-0.0101313
-0.0100815
-0.0100871
-0.0101545
-0.0101933
-0.0101118
-0.0101505
-0.0100198
-0.0100289
-0.00993605
-0.0099534
-0.0100608
-0.010106
-0.0100008
-0.010062
-0.0108764
-0.0108419
-0.0108023
-0.0109265
-0.0108912
-0.0108517
-0.0107559
-0.0106989
-0.0108061
-0.0107493
-0.0109753
-0.0109438
-0.010908
-0.011022
-0.0109983
-0.01097
-0.0108666
-0.0108136
-0.0109369
-0.0108931
-0.0106306
-0.0105459
-0.0106799
-0.0105904
-0.010446
-0.0103274
-0.0104798
-0.0103419
-0.0107475
-0.0106578
-0.0108373
-0.0107574
-0.010541
-0.0103884
-0.0106451
-0.0104937
-0.0110697
-0.0110563
-0.0110386
-0.0111165
-0.0111147
-0.0111102
-0.0110183
-0.0109909
-0.0111062
-0.0111019
-0.0111559
-0.0111698
-0.0111819
-0.0112107
-0.0112294
-0.0112541
-0.0111972
-0.0112194
-0.0112883
-0.0113394
-0.0109571
-0.0109058
-0.0111018
-0.0111061
-0.0108219
-0.0107099
-0.0111055
-0.0104034
-0.0112553
-0.0113216
-0.0114196
-0.0115657
-0.0110089
0.000956588
-0.00416007
0.022298
-0.0101919
-0.010059
-0.010168
-0.00999366
-0.00994041
-0.00985254
-0.00983266
-0.009705
-0.0101619
-0.00992944
-0.0101941
-0.00988097
-0.00970445
-0.00950467
-0.0095645
-0.00923362
-0.00982283
-0.00985705
-0.00966705
-0.00972926
-0.00993517
-0.0100325
-0.00985742
-0.0100123
-0.00944975
-0.00956267
-0.00914101
-0.00933896
-0.00977565
-0.0100185
-0.00969745
-0.0100899
-0.0103191
-0.00861535
-0.00150355
0.013782
-0.00339104
0.00181418
0.0247082
0.0297873
0.0240754
0.0413611
0.0446423
0.0480328
0.0472032
0.0471911
0.0479377
0.0477894
0.00207575
-0.00253088
0.0299478
0.0253854
-0.00798109
-0.0102425
0.0152292
-0.000118725
0.0471302
0.0471233
0.0477632
0.047881
0.0423478
0.0265656
0.0481316
0.0458522
-0.0103097
-0.0103046
-0.0103806
-0.0103807
-0.0103078
-0.0103761
-0.0104562
-0.0104579
-0.010536
-0.0105342
-0.0104526
-0.0105398
-0.0102968
-0.0103646
-0.0102741
-0.0103393
-0.0104441
-0.0105434
-0.0104187
-0.0105285
-0.010613
-0.0106045
-0.0106866
-0.0106674
-0.0106286
-0.0107224
-0.0107372
-0.0107137
-0.0107552
-0.0107405
-0.0107844
-0.0107854
-0.010652
-0.0107879
-0.010667
-0.010899
-0.0108799
-0.0108401
-0.01107
-0.0109469
-0.0102438
-0.0103078
-0.0101968
-0.0102439
-0.0103861
-0.0105044
-0.0102916
-0.0103478
-0.0101535
-0.0101846
-0.01012
-0.0101452
-0.0102008
-0.00972184
-0.0101395
-0.00806399
-0.0106806
-0.00772801
-0.000621771
0.0316935
0.00344865
0.00872832
0.0628181
0.0682885
0.026263
0.0845662
0.0473512
0.104303
0.107807
0.108048
0.107915
0.107927
-0.0107529
-0.0107526
-0.0107538
-0.0107612
-0.0107555
-0.0107463
-0.0107609
-0.0107706
-0.0107613
-0.0107746
-0.010752
-0.0107492
-0.0107541
-0.0107339
-0.0107481
-0.0107081
-0.0107409
-0.0107363
-0.0107175
-0.0107169
-0.0107639
-0.0107779
-0.0107617
-0.0107768
-0.0107531
-0.0107507
-0.0107549
-0.0107711
-0.0107422
-0.010759
-0.0107438
-0.0107307
-0.0107441
-0.0107427
-0.0107349
-0.0107383
-0.010737
-0.0107243
-0.0107361
-0.0107248
-0.00176208
-0.0100492
0.0497064
0.0128657
-0.0106856
-0.0107062
-0.00956679
-0.0106832
0.0999799
0.0534001
0.107843
0.0765905
0.00201108
-0.0107118
0.0172673
-0.010886
-0.0107368
-0.0107452
-0.0107367
-0.0107582
-0.0107454
-0.0107342
-0.0107627
-0.0107523
-0.0107709
-0.0107969
-0.0108775
-0.0108714
-0.0107978
-0.0107836
-0.0108528
-0.010828
-0.0101261
-0.0101865
-0.0101506
-0.0102482
-0.0102389
-0.00868549
-0.010318
-0.0103345
-0.0102194
-0.0103514
-0.0103912
-0.0105636
-0.0104064
-0.0104351
-0.0106596
-0.0107683
0.0451787
0.102684
0.020773
0.0768705
0.107846
0.107895
0.104739
0.10774
-0.00391343
0.0230652
-0.0107552
-0.0103458
0.0520612
0.0581903
-0.00431737
-0.00116375
-0.0106602
-0.0108272
-0.0100141
-0.0112557
-0.010911
-0.0109982
-0.0112636
-0.0112988
0.00283708
-0.0107791
0.0253357
-0.00239031
-0.0116396
-0.0116007
-0.0119505
-0.0118588
-0.0110244
-0.011191
-0.01132
-0.0114
-0.0112706
-0.0112234
-0.0114442
-0.01139
-0.0116047
-0.0116477
-0.0118659
-0.0119108
-0.0116972
-0.0116051
-0.0120311
-0.0110065
0.10802
0.0753119
0.0965906
0.0477526
0.0157147
-0.0110984
-0.00052452
-0.0111818
0.0407019
0.00759889
-0.00742719
-0.0111967
-0.0108203
-0.011156
-0.0111985
-0.0111292
-0.0109988
-0.0109483
-0.0110734
-0.0110085
-0.01091
-0.0108764
-0.0109635
-0.0109265
-0.011096
-0.0110447
-0.0111065
-0.0110691
-0.011008
-0.0109753
-0.0110459
-0.011022
-0.0111956
-0.0111801
-0.0111842
-0.0111389
-0.0111698
-0.0110998
-0.0111297
-0.0110547
-0.0111289
-0.0110941
-0.00422387
-0.0029853
-0.0110988
-0.0109449
-0.00899556
-0.0109143
-0.0111149
-0.011089
-0.0111264
-0.0111061
-0.0110825
-0.0110697
-0.0111178
-0.0111165
-0.0111018
-0.011095
-0.0111888
-0.0111568
-0.011139
-0.0111559
-0.0111968
-0.0112107
-0.0112255
-0.0112653
-0.0113107
-0.0112812
-0.011313
-0.0113647
-0.0113658
-0.0114447
-0.0114322
-0.0115298
-0.0113069
-0.0113381
-0.0113985
-0.0112551
-0.0113204
-0.0114028
-0.0114804
-0.0116017
-0.011507
-0.0116585
-0.0115597
-0.0117585
-0.0116601
-0.010952
0.00863938
0.0390487
0.0177629
0.0474507
-0.0117644
-0.0103361
-0.0118785
-0.0114697
0.0205288
0.0496504
0.0170576
0.0473059
-0.0112296
-0.0112991
-0.0113857
-0.011187
-0.0112556
-0.0113373
-0.0114986
-0.011662
-0.0114416
-0.0115861
-0.0111409
-0.0111997
-0.011266
-0.0110866
-0.0111324
-0.0111802
-0.0113463
-0.0114499
-0.0112325
-0.0112913
-0.0119136
-0.0123245
-0.0118027
-0.0121345
0.00671864
0.0377922
-0.00625883
0.018957
-0.0115943
-0.0117969
-0.0113626
-0.011442
-0.0120085
-0.00228903
-0.0115157
-0.0114428
0.0487315
0.0484863
0.0490534
0.0488192
0.0483648
0.0482561
0.048658
0.0485464
0.0492582
0.0489774
0.0493289
0.0489499
0.0487739
0.0486477
0.0486961
0.0485423
0.0482428
0.04833
0.0485328
0.0486215
0.0485134
0.0488245
0.0488049
0.0490867
0.0486313
0.0487289
0.0485205
0.0486268
0.0489394
0.0492671
0.0488716
0.0492709
0.0492147
0.0486907
0.0432769
0.0482403
0.0483823
0.0481975
0.0478368
0.0475878
0.0189925
0.0370196
-0.00501463
0.00820424
0.0451794
0.0467245
0.0187438
0.0235668
0.0481714
0.0482818
0.0475589
0.0476973
0.0485597
0.0490235
0.0480381
0.0436407
0.046714
0.0452438
0.0236732
0.0191012
0.0374702
0.0201956
0.00891207
-0.00416949
-0.0110342
-0.011065
-0.0110934
-0.0109798
-0.0109975
-0.0110093
-0.0111191
-0.0111394
-0.0110137
-0.011006
-0.0109299
-0.0109363
-0.0109348
-0.0108839
-0.0108815
-0.0108703
-0.0109236
-0.0108977
-0.0108484
-0.0108117
-0.0111518
-0.0111412
-0.0109815
-0.0109254
-0.0110807
-0.0109395
-0.0108174
-0.0106387
-0.0108527
-0.0107768
-0.0107568
-0.0106757
-0.0106572
-0.0104807
-0.0105619
-0.0104087
-0.0108439
-0.0108349
-0.010817
-0.0108097
-0.0107961
-0.0107736
-0.0107883
-0.0107459
-0.0107409
-0.0106961
-0.0107818
-0.010765
-0.0107397
-0.010759
-0.0107406
-0.0107136
-0.0107049
-0.0106595
-0.0106778
-0.0106327
-0.0106876
-0.0106083
-0.0106378
-0.0105635
-0.0105058
-0.0103773
-0.0104729
-0.0103662
-0.010603
-0.0105342
-0.0105783
-0.0105145
-0.0104543
-0.0103645
-0.010443
-0.0103657
-0.010447
-0.00971473
-0.0102733
-0.00981505
-0.00729314
-0.0039617
-0.00936519
-0.00904771
-0.0102065
-0.0098943
-0.0102049
-0.00998696
-0.00960679
-0.00941784
-0.00979341
-0.00966979
-0.00386155
-0.00703934
-0.00904873
-0.00929826
-0.00951134
-0.0102074
-0.0096983
-0.010102
-0.00941365
-0.0095613
-0.00966145
-0.00975434
-0.00980928
-0.0100785
-0.00991734
-0.0101045
-0.0102236
-0.0100672
-0.0102476
-0.0101318
-0.00993318
-0.00984974
-0.0100353
-0.00997599
-0.0102701
-0.0101808
-0.0102876
-0.0102156
-0.0101082
-0.0100636
-0.0101578
-0.0101222
-0.00984063
-0.00990028
-0.0099669
-0.0100063
-0.0100098
-0.0101425
-0.0100825
-0.0101799
-0.0100547
-0.0100815
-0.0101136
-0.0101325
-0.0101368
-0.0102114
-0.0101746
-0.0102344
0.0417309
0.0114468
0.0486288
0.0205548
-0.0118267
-0.0120717
-0.00960232
-0.0122701
0.0497259
0.0232924
0.0483877
0.0196525
-0.00787823
-0.0122322
-0.0101158
-0.0120929
-0.012089
-0.0122005
-0.0123503
-0.0126098
-0.00896179
0.02805
0.00569181
0.0883824
-0.0121024
-0.0120671
-0.011772
-0.0114926
0.0112038
0.103332
-0.0029617
0.0586411
0.0398298
0.00910641
0.020905
-0.00461857
-0.0121222
-0.0119457
-0.0118977
-0.0116417
-0.000942965
-0.0113084
-0.0108309
-0.0111265
-0.011486
-0.0113591
-0.0111443
-0.0111172
-0.0116903
-0.0115209
-0.0114314
-0.0112755
-0.011123
0.00506764
-0.0110201
-0.0109014
-0.0112487
-0.0111631
-0.0110776
-0.0110331
-0.0110146
-0.0109284
-0.0109493
-0.0108972
0.0768671
0.0818924
0.161964
0.165468
0.0376938
-0.00373752
0.10524
0.0197394
0.171687
0.171156
0.127573
0.133558
0.121994
0.0306817
0.0753452
0.00798773
-0.0110531
-0.011106
-0.0113538
-0.011301
-0.0111824
-0.0112255
-0.011265
-0.0112812
-0.0114695
-0.0113842
-0.0110081
-0.0111371
-0.0113012
-0.0113069
-0.0111904
-0.0112551
0.036769
0.0431546
-0.0110499
-0.0107689
0.0120951
-0.0101975
-0.010707
-0.0109516
-0.01098
-0.0108038
-0.0109116
-0.0108393
-0.0107644
-0.0109146
-0.010838
-0.0109159
-0.0109877
-0.0111077
-0.010973
-0.0110664
-0.0111653
-0.0112296
-0.0111238
-0.011187
-0.0109522
-0.0110298
-0.0109442
-0.0109972
-0.011085
-0.0111409
-0.0110418
-0.0110866
-0.0105871
-0.0107766
-0.0103973
-0.0105859
-0.0108748
-0.0109152
-0.0107074
-0.0107795
-0.0103042
-0.0104738
-0.0102756
-0.0104179
-0.0105965
-0.0106809
-0.0105306
-0.0106166
-0.0109279
-0.0109222
-0.0108224
-0.0108426
-0.0108917
-0.0108757
-0.0108427
-0.010844
-0.0107391
-0.0107755
-0.0106816
-0.0107279
-0.0107959
-0.0108116
-0.0107601
-0.010784
-0.0102734
-0.0103915
-0.0102824
-0.0103814
-0.0104921
-0.0105752
-0.0104714
-0.0105506
-0.0102945
-0.0103797
-0.0103046
-0.0103807
-0.0104617
-0.0105382
-0.0104579
-0.0105342
-0.0106421
-0.0106937
-0.0106178
-0.0106727
-0.0107323
-0.010761
-0.0107148
-0.0107455
-0.0106061
-0.010664
-0.0106045
-0.0106674
-0.0107081
-0.0107382
-0.0107137
-0.0107405
-0.010884
-0.0108506
-0.0108525
-0.0108448
-0.0108553
-0.0109033
-0.0108546
-0.0108849
-0.0108261
-0.0108322
-0.0108026
-0.0108151
-0.0108448
-0.0108665
-0.0108286
-0.010845
-0.0109302
-0.0109682
-0.0109068
-0.0109338
-0.0110021
-0.0110342
-0.0109583
-0.0109798
-0.010884
-0.0109025
-0.0108586
-0.0108709
-0.0109183
-0.0109299
-0.0108799
-0.0108839
-0.0107824
-0.0107979
-0.0107671
-0.0107827
-0.0108117
-0.0108247
-0.0107957
-0.0108057
-0.0107573
-0.0107704
-0.0107526
-0.0107612
-0.0107818
-0.0107889
-0.0107706
-0.0107746
-0.0108349
-0.0108424
-0.010813
-0.0108168
-0.0108459
-0.0108439
-0.0108162
-0.0108097
-0.0107939
-0.0107949
-0.0107779
-0.0107768
-0.0107913
-0.0107818
-0.0107711
-0.01076

SCALARS U float
LOOKUP_TABLE default
0.021396
0.021804
0.021096
0.0215467
0.022216
0.0220181
0.0217067
0.022058
0.0224135
0.0226167
0.0224853
0.0229851
0.0229288
0.0227567
0.0230653
0.0219967
0.0222985
0.0226088
0.0222236
0.0224988
0.0227853
0.0229094
0.0231777
0.0230653
0.0233169
0.0232916
0.0233183
0.0234994
0.0236139
0.02331
0.0234559
0.0235651
0.0237636
0.0234455
0.0237113
0.0234641
0.0232984
0.023384
0.0234936
0.0235104
0.0236099
0.0234683
0.0232732
0.0235749
0.0233672
0.0223526
0.0226348
0.0229241
0.0223589
0.0226873
0.0230055
0.0232075
0.0234669
0.0233138
0.0236028
0.0222755
0.0226661
0.0230212
0.0222022
0.0226101
0.022974
0.0233622
0.0236934
0.0233325
0.0237041
0.0236737
0.0237906
0.0238474
0.0240101
0.0237717
0.0235715
0.0240368
0.0238703
0.0239956
0.0242325
0.0240763
0.0244187
0.0243407
0.0242467
0.0246596
0.0247036
0.0231065
0.0234062
0.0225349
0.02282
0.0229325
0.0223598
0.0217554
0.0219774
0.0208287
0.0209554
0.0216039
0.020717
0.022884
0.022295
0.0229588
0.0223409
0.0215291
0.0206354
0.0215365
0.0205962
0.0198444
0.0198698
0.0188988
0.0188448
0.0197746
0.0188588
0.0180779
0.0179861
0.0174373
0.0173554
0.0180456
0.0173879
0.0196856
0.0187586
0.019598
0.0186278
0.0179287
0.0172472
0.0177651
0.0170617
0.0231522
0.0224971
0.0234559
0.0227611
0.0216297
0.020607
0.0218087
0.0206667
0.0238672
0.0231389
0.0244171
0.0236753
0.0220797
0.0207708
0.0224777
0.020921
0.0195235
0.0184842
0.0194582
0.0183225
0.0175825
0.0168765
0.0173796
0.0167063
0.0193818
0.0181091
0.0192483
0.0177465
0.0171203
0.0165304
0.0166584
0.0161499
0.0221948
0.022532
0.0228505
0.0221934
0.0223898
0.0226136
0.0231947
0.0235943
0.0229107
0.0233266
0.0220652
0.022103
0.0222102
0.0217076
0.021608
0.0216
0.0224425
0.0228783
0.0217639
0.0222356
0.0240475
0.0245419
0.0238857
0.0246212
0.025005
0.025313
0.0254826
0.0262925
0.0235993
0.0247369
0.0231979
0.0249267
0.0262831
0.0279171
0.0274234
0.0300224
0.0210893
0.0208858
0.0207715
0.0202636
0.0199664
0.0197307
0.0208599
0.0213582
0.0196907
0.0200968
0.0193584
0.0189346
0.018524
0.0184806
0.0178789
0.0172191
0.0182339
0.01827
0.0165141
0.0158016
0.0225681
0.0248914
0.0213188
0.0237642
0.0281937
0.0311017
0.0269767
0.0287322
0.0189274
0.0204186
0.0151198
0.0143806
0.0219338
0.0212713
0.0128611
0.00985643
0.0252352
0.02452
0.026612
0.0259465
0.0231207
0.021159
0.0241927
0.0215487
0.0288104
0.0281009
0.0313444
0.0301637
0.0256951
0.0220317
0.0267
0.0220672
0.0190024
0.0170867
0.0185867
0.0159562
0.0157702
0.0152729
0.0141812
0.0135548
0.0179799
0.014372
0.0173363
0.013054
0.0118837
0.0109827
0.00980524
0.00837438
0.0319397
0.029836
0.027653
0.024797
0.025684
0.0213168
0.0219689
0.0200867
0.0182551
0.0158579
0.00707936
0.00727924
0.0160266
0.0180109
0.0107451
0.0159713
0.0174375
0.0137024
0.0186931
0.0169352
0.0102592
0.00796293
0.0144466
0.0116247
0.0203165
0.0218525
0.0215021
0.0262975
0.0216865
0.0195657
0.0292488
0.0294084
0.0170032
0.0169666
0.0167668
0.0167909
0.0169178
0.016635
0.0167118
0.016787
0.0168064
0.0169076
0.0165381
0.0166036
0.0167465
0.0164223
0.016544
0.016187
0.016274
0.0162724
0.0159614
0.0157884
0.0170411
0.0171228
0.0173924
0.0174063
0.0168585
0.017299
0.0178449
0.017738
0.0183795
0.0181106
0.0179375
0.0187329
0.0165047
0.0170297
0.015852
0.0164434
0.0179543
0.0191898
0.0177916
0.0196238
0.0163824
0.016037
0.016307
0.0161022
0.0157477
0.0153301
0.0159316
0.0155488
0.0163554
0.0165712
0.0162447
0.0169657
0.0170003
0.0176254
0.0181613
0.0201608
0.015124
0.0158372
0.0152629
0.0159729
0.0174471
0.0193734
0.0172715
0.018321
0.0182504
0.0186693
0.0220664
0.0221084
0.0185531
0.0177299
0.0205326
0.0182658
0.0188562
0.0184638
0.0192556
0.018795
0.01939
0.019854
0.0196142
0.0191264
0.019942
0.0194641
0.0202056
0.0204869
0.0201244
0.0206269
0.0209821
0.0215628
0.0208887
0.0210554
0.0216094
0.0215444
0.0202786
0.0198285
0.0206294
0.0202203
0.0207693
0.0210583
0.0210021
0.02064
0.021396
0.0210725
0.0213706
0.0217067
0.0212531
0.0214661
0.0216241
0.0217662
0.0217153
0.0219967
0.0219732
0.0222236
0.0210382
0.0219248
0.0194827
0.0204411
0.0218866
0.0216668
0.0207355
0.020945
0.0170922
0.017158
0.0160785
0.0151653
0.0181018
0.0194458
0.0164561
0.0185404
0.0217115
0.0218608
0.0212958
0.0216542
0.0220877
0.0223526
0.0220145
0.0223589
0.0204704
0.0212324
0.019982
0.0209895
0.0218137
0.0222755
0.0216896
0.0222022
0.0155684
0.0166065
0.0139478
0.015017
0.018219
0.0209082
0.0163758
0.0179449
0.0115339
0.0128608
0.00897052
0.0109399
0.0142261
0.014781
0.013185
0.014589
0.023178
0.0228796
0.0188869
0.0192771
0.0212941
0.0193292
0.0199031
0.0198106
0.0151559
0.0168186
0.0160683
0.018031
0.018881
0.0203642
0.0195227
0.0213006
0.00773178
0.00970574
0.0099423
0.0107247
0.012614
0.0148515
0.0131691