# vtk DataFile Version 2.0
Gerris simulation version 1.3.2 (131206-155120)
ASCII
DATASET UNSTRUCTURED_GRID

POINTS 1089 float
-0.5 0.46875 0
-0.46875 0.46875 0
-0.5 0.5 0
-0.46875 0.5 0
-0.4375 0.46875 0
-0.4375 0.5 0
-0.5 0.4375 0
-0.46875 0.4375 0
-0.4375 0.4375 0
-0.40625 0.46875 0
-0.40625 0.5 0
-0.375 0.46875 0
-0.375 0.5 0
-0.40625 0.4375 0
-0.375 0.4375 0
-0.5 0.40625 0
-0.46875 0.40625 0
-0.4375 0.40625 0
-0.5 0.375 0
-0.46875 0.375 0
-0.4375 0.375 0
-0.40625 0.40625 0
-0.375 0.40625 0
-0.40625 0.375 0
-0.375 0.375 0
-0.34375 0.46875 0
-0.34375 0.5 0
-0.3125 0.46875 0
-0.3125 0.5 0
-0.34375 0.4375 0
-0.3125 0.4375 0
-0.28125 0.46875 0
-0.28125 0.5 0
-0.25 0.46875 0
-0.25 0.5 0
-0.28125 0.4375 0
-0.25 0.4375 0
-0.34375 0.40625 0
-0.3125 0.40625 0
-0.34375 0.375 0
-0.3125 0.375 0
-0.28125 0.40625 0
-0.25 0.40625 0
-0.28125 0.375 0
-0.25 0.375 0
-0.5 0.34375 0
-0.46875 0.34375 0
-0.4375 0.34375 0
-0.5 0.3125 0
-0.46875 0.3125 0
-0.4375 0.3125 0
-0.40625 0.34375 0
-0.375 0.34375 0
-0.40625 0.3125 0
-0.375 0.3125 0
-0.5 0.28125 0
-0.46875 0.28125 0
-0.4375 0.28125 0
-0.5 0.25 0
-0.46875 0.25 0
-0.4375 0.25 0
-0.40625 0.28125 0
-0.375 0.28125 0
-0.40625 0.25 0
-0.375 0.25 0
-0.34375 0.34375 0
-0.3125 0.34375 0
-0.34375 0.3125 0
-0.3125 0.3125 0
-0.28125 0.34375 0
-0.25 0.34375 0
-0.28125 0.3125 0
-0.25 0.3125 0
-0.34375 0.28125 0
-0.3125 0.28125 0
-0.34375 0.25 0
-0.3125 0.25 0
-0.28125 0.28125 0
-0.25 0.28125 0
-0.28125 0.25 0
-0.25 0.25 0
-0.21875 0.46875 0
-0.21875 0.5 0
-0.1875 0.46875 0
-0.1875 0.5 0
-0.21875 0.4375 0
-0.1875 0.4375 0
-0.15625 0.46875 0
-0.15625 0.5 0
-0.125 0.46875 0
-0.125 0.5 0
-0.15625 0.4375 0
-0.125 0.4375 0
-0.21875 0.40625 0
-0.1875 0.40625 0
-0.21875 0.375 0
-0.1875 0.375 0
-0.15625 0.40625 0
-0.125 0.40625 0
-0.15625 0.375 0
-0.125 0.375 0
-0.09375 0.46875 0
-0.09375 0.5 0
-0.0625 0.46875 0
-0.0625 0.5 0
-0.09375 0.4375 0
-0.0625 0.4375 0
-0.03125 0.46875 0
-0.03125 0.5 0
0 0.46875 0
0 0.5 0
-0.03125 0.4375 0
0 0.4375 0
-0.09375 0.40625 0
-0.0625 0.40625 0
-0.09375 0.375 0
-0.0625 0.375 0
-0.03125 0.40625 0
0 0.40625 0
-0.03125 0.375 0
0 0.375 0
-0.21875 0.34375 0
-0.1875 0.34375 0
-0.21875 0.3125 0
-0.1875 0.3125 0
-0.15625 0.34375 0
-0.125 0.34375 0
-0.15625 0.3125 0
-0.125 0.3125 0
-0.21875 0.28125 0
-0.1875 0.28125 0
-0.21875 0.25 0
-0.1875 0.25 0
-0.15625 0.28125 0
-0.125 0.28125 0
-0.15625 0.25 0
-0.125 0.25 0
-0.09375 0.34375 0
-0.0625 0.34375 0
-0.09375 0.3125 0
-0.0625 0.3125 0
-0.03125 0.34375 0
0 0.34375 0
-0.03125 0.3125 0
0 0.3125 0
-0.09375 0.28125 0
-0.0625 0.28125 0
-0.09375 0.25 0
-0.0625 0.25 0
-0.03125 0.28125 0
0 0.28125 0
-0.03125 0.25 0
0 0.25 0
-0.5 0.21875 0
-0.46875 0.21875 0
-0.4375 0.21875 0
-0.5 0.1875 0
-0.46875 0.1875 0
-0.4375 0.1875 0
-0.40625 0.21875 0
-0.375 0.21875 0
-0.40625 0.1875 0
-0.375 0.1875 0
-0.5 0.15625 0
-0.46875 0.15625 0
-0.4375 0.15625 0
-0.5 0.125 0
-0.46875 0.125 0
-0.4375 0.125 0
-0.40625 0.15625 0
-0.375 0.15625 0
-0.40625 0.125 0
-0.375 0.125 0
-0.34375 0.21875 0
-0.3125 0.21875 0
-0.34375 0.1875 0
-0.3125 0.1875 0
-0.28125 0.21875 0
-0.25 0.21875 0
-0.28125 0.1875 0
-0.25 0.1875 0
-0.34375 0.15625 0
-0.3125 0.15625 0
-0.34375 0.125 0
-0.3125 0.125 0
-0.28125 0.15625 0
-0.25 0.15625 0
-0.28125 0.125 0
-0.25 0.125 0
-0.5 0.09375 0
-0.46875 0.09375 0
-0.4375 0.09375 0
-0.5 0.0625 0
-0.46875 0.0625 0
-0.4375 0.0625 0
-0.40625 0.09375 0
-0.375 0.09375 0
-0.40625 0.0625 0
-0.375 0.0625 0
-0.5 0.03125 0
-0.46875 0.03125 0
-0.4375 0.03125 0
-0.5 0 0
-0.46875 0 0
-0.4375 0 0
-0.40625 0.03125 0
-0.375 0.03125 0
-0.40625 0 0
-0.375 0 0
-0.34375 0.09375 0
-0.3125 0.09375 0
-0.34375 0.0625 0
-0.3125 0.0625 0
-0.28125 0.09375 0
-0.25 0.09375 0
-0.28125 0.0625 0
-0.25 0.0625 0
-0.34375 0.03125 0
-0.3125 0.03125 0
-0.34375 0 0
-0.3125 0 0
-0.28125 0.03125 0
-0.25 0.03125 0
-0.28125 0 0
-0.25 0 0
-0.21875 0.21875 0
-0.1875 0.21875 0
-0.21875 0.1875 0
-0.1875 0.1875 0
-0.15625 0.21875 0
-0.125 0.21875 0
-0.15625 0.1875 0
-0.125 0.1875 0
-0.21875 0.15625 0
-0.1875 0.15625 0
-0.21875 0.125 0
-0.1875 0.125 0
-0.15625 0.15625 0
-0.125 0.15625 0
-0.15625 0.125 0
-0.125 0.125 0
-0.09375 0.21875 0
-0.0625 0.21875 0
-0.09375 0.1875 0
-0.0625 0.1875 0
-0.03125 0.21875 0
0 0.21875 0
-0.03125 0.1875 0
0 0.1875 0
-0.09375 0.15625 0
-0.0625 0.15625 0
-0.09375 0.125 0
-0.0625 0.125 0
-0.03125 0.15625 0
0 0.15625 0
-0.03125 0.125 0
0 0.125 0
-0.21875 0.09375 0
-0.1875 0.09375 0
-0.21875 0.0625 0
-0.1875 0.0625 0
-0.15625 0.09375 0
-0.125 0.09375 0
-0.15625 0.0625 0
-0.125 0.0625 0
-0.21875 0.03125 0
-0.1875 0.03125 0
-0.21875 0 0
-0.1875 0 0
-0.15625 0.03125 0
-0.125 0.03125 0
-0.15625 0 0
-0.125 0 0
-0.09375 0.09375 0
-0.0625 0.09375 0
-0.09375 0.0625 0
-0.0625 0.0625 0
-0.03125 0.09375 0
0 0.09375 0
-0.03125 0.0625 0
0 0.0625 0
-0.09375 0.03125 0
-0.0625 0.03125 0
-0.09375 0 0
-0.0625 0 0
-0.03125 0.03125 0
0 0.03125 0
-0.03125 0 0
0 0 0
0.03125 0.46875 0
0.03125 0.5 0
0.0625 0.46875 0
0.0625 0.5 0
0.03125 0.4375 0
0.0625 0.4375 0
0.09375 0.46875 0
0.09375 0.5 0
0.125 0.46875 0
0.125 0.5 0
0.09375 0.4375 0
0.125 0.4375 0
0.03125 0.40625 0
0.0625 0.40625 0
0.03125 0.375 0
0.0625 0.375 0
0.09375 0.40625 0
0.125 0.40625 0
0.09375 0.375 0
0.125 0.375 0
0.15625 0.46875 0
0.15625 0.5 0
0.1875 0.46875 0
0.1875 0.5 0
0.15625 0.4375 0
0.1875 0.4375 0
0.21875 0.46875 0
0.21875 0.5 0
0.25 0.46875 0
0.25 0.5 0
0.21875 0.4375 0
0.25 0.4375 0
0.15625 0.40625 0
0.1875 0.40625 0
0.15625 0.375 0
0.1875 0.375 0
0.21875 0.40625 0
0.25 0.40625 0
0.21875 0.375 0
0.25 0.375 0
0.03125 0.34375 0
0.0625 0.34375 0
0.03125 0.3125 0
0.0625 0.3125 0
0.09375 0.34375 0
0.125 0.34375 0
0.09375 0.3125 0
0.125 0.3125 0
0.03125 0.28125 0
0.0625 0.28125 0
0.03125 0.25 0
0.0625 0.25 0
0.09375 0.28125 0
0.125 0.28125 0
0.09375 0.25 0
0.125 0.25 0
0.15625 0.34375 0
0.1875 0.34375 0
0.15625 0.3125 0
0.1875 0.3125 0
0.21875 0.34375 0
0.25 0.34375 0
0.21875 0.3125 0
0.25 0.3125 0
0.15625 0.28125 0
0.1875 0.28125 0
0.15625 0.25 0
0.1875 0.25 0
0.21875 0.28125 0
0.25 0.28125 0
0.21875 0.25 0
0.25 0.25 0
0.28125 0.46875 0
0.28125 0.5 0
0.3125 0.46875 0
0.3125 0.5 0
0.28125 0.4375 0
0.3125 0.4375 0
0.34375 0.46875 0
0.34375 0.5 0
0.375 0.46875 0
0.375 0.5 0
0.34375 0.4375 0
0.375 0.4375 0
0.28125 0.40625 0
0.3125 0.40625 0
0.28125 0.375 0
0.3125 0.375 0
0.34375 0.40625 0
0.375 0.40625 0
0.34375 0.375 0
0.375 0.375 0
0.40625 0.46875 0
0.40625 0.5 0
0.4375 0.46875 0
0.4375 0.5 0
0.40625 0.4375 0
0.4375 0.4375 0
0.46875 0.46875 0
0.46875 0.5 0
0.5 0.46875 0
0.5 0.5 0
0.46875 0.4375 0
0.5 0.4375 0
0.40625 0.40625 0
0.4375 0.40625 0
0.40625 0.375 0
0.4375 0.375 0
0.46875 0.40625 0
0.5 0.40625 0
0.46875 0.375 0
0.5 0.375 0
0.28125 0.34375 0
0.3125 0.34375 0
0.28125 0.3125 0
0.3125 0.3125 0
0.34375 0.34375 0
0.375 0.34375 0
0.34375 0.3125 0
0.375 0.3125 0
0.28125 0.28125 0
0.3125 0.28125 0
0.28125 0.25 0
0.3125 0.25 0
0.34375 0.28125 0
0.375 0.28125 0
0.34375 0.25 0
0.375 0.25 0
0.40625 0.34375 0
0.4375 0.34375 0
0.40625 0.3125 0
0.4375 0.3125 0
0.46875 0.34375 0
0.5 0.34375 0
0.46875 0.3125 0
0.5 0.3125 0
0.40625 0.28125 0
0.4375 0.28125 0
0.40625 0.25 0
0.4375 0.25 0
0.46875 0.28125 0
0.5 0.28125 0
0.46875 0.25 0
0.5 0.25 0
0.03125 0.21875 0
0.0625 0.21875 0
0.03125 0.1875 0
0.0625 0.1875 0
0.09375 0.21875 0
0.125 0.21875 0
0.09375 0.1875 0
0.125 0.1875 0
0.03125 0.15625 0
0.0625 0.15625 0
0.03125 0.125 0
0.0625 0.125 0
0.09375 0.15625 0
0.125 0.15625 0
0.09375 0.125 0
0.125 0.125 0
0.15625 0.21875 0
0.1875 0.21875 0
0.15625 0.1875 0
0.1875 0.1875 0
0.21875 0.21875 0
0.25 0.21875 0
0.21875 0.1875 0
0.25 0.1875 0
0.15625 0.15625 0
0.1875 0.15625 0
0.15625 0.125 0
0.1875 0.125 0
0.21875 0.15625 0
0.25 0.15625 0
0.21875 0.125 0
0.25 0.125 0
0.03125 0.09375 0
0.0625 0.09375 0
0.03125 0.0625 0
0.0625 0.0625 0
0.09375 0.09375 0
0.125 0.09375 0
0.09375 0.0625 0
0.125 0.0625 0
0.03125 0.03125 0
0.0625 0.03125 0
0.03125 0 0
0.0625 0 0
0.09375 0.03125 0
0.125 0.03125 0
0.09375 0 0
0.125 0 0
0.15625 0.09375 0
0.1875 0.09375 0
0.15625 0.0625 0
0.1875 0.0625 0
0.21875 0.09375 0
0.25 0.09375 0
0.21875 0.0625 0
0.25 0.0625 0
0.15625 0.03125 0
0.1875 0.03125 0
0.15625 0 0
0.1875 0 0
0.21875 0.03125 0
0.25 0.03125 0
0.21875 0 0
0.25 0 0
0.28125 0.21875 0
0.3125 0.21875 0
0.28125 0.1875 0
0.3125 0.1875 0
0.34375 0.21875 0
0.375 0.21875 0
0.34375 0.1875 0
0.375 0.1875 0
0.28125 0.15625 0
0.3125 0.15625 0
0.28125 0.125 0
0.3125 0.125 0
0.34375 0.15625 0
0.375 0.15625 0
0.34375 0.125 0
0.375 0.125 0
0.40625 0.21875 0
0.4375 0.21875 0
0.40625 0.1875 0
0.4375 0.1875 0
0.46875 0.21875 0
0.5 0.21875 0
0.46875 0.1875 0
0.5 0.1875 0
0.40625 0.15625 0
0.4375 0.15625 0
0.40625 0.125 0
0.4375 0.125 0
0.46875 0.15625 0
0.5 0.15625 0
0.46875 0.125 0
0.5 0.125 0
0.28125 0.09375 0
0.3125 0.09375 0
0.28125 0.0625 0
0.3125 0.0625 0
0.34375 0.09375 0
0.375 0.09375 0
0.34375 0.0625 0
0.375 0.0625 0
0.28125 0.03125 0
0.3125 0.03125 0
0.28125 0 0
0.3125 0 0
0.34375 0.03125 0
0.375 0.03125 0
0.34375 0 0
0.375 0 0
0.40625 0.09375 0
0.4375 0.09375 0
0.40625 0.0625 0
0.4375 0.0625 0
0.46875 0.09375 0
0.5 0.09375 0
0.46875 0.0625 0
0.5 0.0625 0
0.40625 0.03125 0
0.4375 0.03125 0
0.40625 0 0
0.4375 0 0
0.46875 0.03125 0
0.5 0.03125 0
0.46875 0 0
0.5 0 0
-0.5 -0.03125 0
-0.46875 -0.03125 0
-0.4375 -0.03125 0
-0.5 -0.0625 0
-0.46875 -0.0625 0
-0.4375 -0.0625 0
-0.40625 -0.03125 0
-0.375 -0.03125 0
-0.40625 -0.0625 0
-0.375 -0.0625 0
-0.5 -0.09375 0
-0.46875 -0.09375 0
-0.4375 -0.09375 0
-0.5 -0.125 0
-0.46875 -0.125 0
-0.4375 -0.125 0
-0.40625 -0.09375 0
-0.375 -0.09375 0
-0.40625 -0.125 0
-0.375 -0.125 0
-0.34375 -0.03125 0
-0.3125 -0.03125 0
-0.34375 -0.0625 0
-0.3125 -0.0625 0
-0.28125 -0.03125 0
-0.25 -0.03125 0
-0.28125 -0.0625 0
-0.25 -0.0625 0
-0.34375 -0.09375 0
-0.3125 -0.09375 0
-0.34375 -0.125 0
-0.3125 -0.125 0
-0.28125 -0.09375 0
-0.25 -0.09375 0
-0.28125 -0.125 0
-0.25 -0.125 0
-0.5 -0.15625 0
-0.46875 -0.15625 0
-0.4375 -0.15625 0
-0.5 -0.1875 0
-0.46875 -0.1875 0
-0.4375 -0.1875 0
-0.40625 -0.15625 0
-0.375 -0.15625 0
[...]
POINT_DATA 1089
SCALARS T float
LOOKUP_TABLE default
0
0
0
0
0
0
0
0
0
0
0
0
0
0
0
0
0
0
0
0
0
0
0
0
0
0
0
0
0
0
0
0
0
0
0
0
0
0
0
0
0
0
0
0
0
0
0
0
0
0
0
0
0
0
0
0
0
0
0
0
0
0
0
0
0
0
0
0
0
0
0
0
0
0
0
0
0
0
0
0
0
0
0
0
0
0
0
0
0
0
0
0
0
0
0
0
0
0
0
0
0
0
0
0
0
0
0
0
0
0
0
0
0
0
0
0
0
0
0
0
0
0
0
0
0
0
0
0
0
0
0
0
0
0
0
0
0
0
0
0
0
0
0
0
0
0
0
0
0
0
0
0
0
0
0
0
0
0
0
0
0
0
0
0
0
0
0
0
0
0
0
0
0
0
0
0
0
0
0
0
0
0
0
0
0
0
0
0
0
0
0
0
0
0
0
0
0
0
0
0
0
0
0
0
0
0
0
0
0
0
0
0
0
0
0
0
0
0
0
0
0
0
0
0
0.00260585
0
0
0
0
0
0
0
0
0
0
0
0
0
0
0
0.0241533
0
0
0
0
0
0
0
0
0
0
0.113105
0.197156
0
0
0.189935
0.10037
0
0.0109507
0.00737954
0.209618
0.160804
0.422038
0.602092
0.897884
0.130685
0.571973
0.351501
0.848896
0.941288
1
1
1
0.611136
0.697156
0.998031
1
0.689935
0.589148
1
0.988777
1
1
1
1
1
1
1
1
0
0
0
0
0
0
0
0
0
0
0
0
0
0
0
0
0
0
0
0
0
0
0
0
0
0
0
0
0
0
0
0
0
0
0
0
0
0
0.00402642
0.104812
0
0
0
0
0
0
0
0
0
0
0
0
0
0
0
0
0
0
0
0.0116822
0.150427
0.501213
0.402937
0.891254
0
0.0291711
0
0.017489
0.524025
0.994854
0.453656
0.936167
0
0
0
0
0
0
0
0
0
0
0
0
0
0
0.267435
0.304563
0
0
0.168184
0.0302711
0
0
0
0
0
0
0
0
0
0
0
0
0
0
0
0
0
0
0
0
0.767435
0.804563
1
1
0.637973
0.271105
0.969789
0.596084
1
1
1
1
1
0.722681
0.996251
0.652581
0.0210447
0
0.126296
0
0
0
0
0
0.222681
0
0.156329
0
0
0
0
0
0
0
0
0
0
0
0
0
0
0
0.0186397
0
0
0
0
0
0
0
0
0
0.214769
0.63689
0.0286019
0.200723
0
0
0
0
0
0
0
0
0.38378
0.130391
0.86514
0.540911
0.00402822
0
0.165756
0.00120778
1
0.91052
1
1
0.497742
0.0872218
0.775265
0.275265
0
0
0
0
0
0
0
0
0
0
0
0
0
0
0
0
0.912153
0.95185
0.412153
0.45209
0.785264
0.362344
0.289252
0.077194
0
0.000239389
0
0
0.000239389
0
0
0
0.038899
0
0
0
0
0
0
0
0
0
0
0
0
0
0
0
0
0
0
0
0
0
0
0
0.00288586
0.0960784
0.122246
0.465438
0.217136
0.161399
0.717136
0.6285
0
0
0
0
0
0
0
0
0.0374562
0
0.265626
0.0110689
0
0
0
0
0
0
0
0
0
0
0
0
0
0
0
0
0
0
0
0
0
0
0
0
0
0
0
0
0
0.0311176
0
0.0582409
0
0
0
0
0
0.0318959
0
0.0021667
0
0
0
0
0
0
0
0
0
0
0
0
0
0
0
0
0
0
0
0
0
0
0
0
0
0
0
0
0
0
0
0
0
0
0
0
0.506708
0.97559
0.558241
1
1
1
1
1
0.511693
0.979797
0.361233
0.859066
1
1
1
1
1
1
1
1
1
1
1
1
1
1
1
1
1
1
1
1
0.137762
0.584412
0.00849273
0.216935
0.94665
1
0.609551
0.898006
0
0.0117923
0
0
0.162901
0.421185
0
0.0231791
1
1
0.996897
1
1
1
1
0.985841
0.603462
0.683857
0.106565
0.183857
0.67369
0.57219
0.17369
0.0863482
0
0
0
0
0
0
0
0
0
0
0
0
0
0
0
0
0
0
0
0
0
0
0
0
0
0
0
0
0
0
0
0
0
0
0
0
0
0
0
0
0
0
0
0
0
0
0
0
0
0
0
0
0
0
0
0
0
0
0
0
0
0
0
0
0
0
0
0
0
0
0
0
0
0
0
0
0
0
0
0
0
0
0
0
0
0
0
0
0
0
0
0
0
0
0
0
0
0
0
0
0
0
0
0
0
0
0
0
0
0
0
0
0
0
0
0
0
0
0
0
0
0
0
0
0
0
0
0
0
0
0
0
0
0
0
0
1
1
1
1
0.92663
0.42663
0.973705
0.473705
1
1
1
1
0.922459
0.422459
0.767044
0.267044
0
0
0
0
0
0
0
0
0
0
0
0
0
0
0
0
1
0.903588
0.854028
0.524415
0.48525
0.0816621
0.15698
0.000751296
0.367156
0.120828
0.0131288
0
0.00264139
0
0
0
0
0
0
0
0
0
0
0
0
0
0
0
0
0
0
0
0.299341
0.799341
0.280463
0.78045
1
0.967101
0.999987
0.946724
0.100644
0.406881
0.000162295
0.056412
0.638319
0.539154
0.138332
0.0924298
0.514863
0.0477627
0.490754
0.0440302
0
0
0
0
0.214408
0.00733649
0.0103474
0
0
0
0
0
0
0
0
0
0
0
0
0
0
0
0
0
0
0
0
0
0
0
0
0
0
0
0
0
0
0
0
0
0
0
0
0
0
0
0
0
0
0
0
0
0
0
0
0
0
0
0
0
0
0
0
0
0
0
0
0
0
0
0
0
0
0
0
0
0
0
0
0
0
0
0
0
0
0
0
0
0
0
0
0
0
0
0
0
0
0
0
0
0
0
0
0
0
0
0
0
0
0
0
0
0
0
0
0
0
0
0
0
0
0
0
0
0
0
0
0
0
0
0
0
0
0
0
0
0
0
0
0
0
0
0
0
0
0
0
0
0
0
0
0
0
0
0
0
0
0
0
0
0
0
0
0
0
0
0
0
0
0
0
0

SCALARS P float
LOOKUP_TABLE default
-0.0118494
-0.0118394
-0.0118588
-0.0118494
-0.011826
-0.0118367
-0.0118442
-0.0118333
-0.0118191
-0.0118086
-0.01182
-0.0117877
-0.0117997
-0.0118007
-0.0117788
-0.0118465
-0.0118319
-0.0118157
-0.0118396
-0.0118287
-0.0118136
-0.0117958
-0.0117729
-0.0117934
-0.0117699
-0.0117632
-0.0117758
-0.0117354
-0.0117484
-0.0117536
-0.0117252
-0.0117048
-0.0117178
-0.0116718
-0.0116845
-0.011694
-0.0116608
-0.0117467
-0.0117173
-0.0117426
-0.011712
-0.0116853
-0.0116511
-0.0116786
-0.0116429
-0.0118628
-0.0118398
-0.0118188
-0.0118565
-0.0118371
-0.0118192
-0.0117955
-0.0117702
-0.0117973
-0.0117723
-0.0118284
-0.0118278
-0.0118191
-0.0118075
-0.0118247
-0.0118246
-0.0118012
-0.0117775
-0.0118104
-0.0117876
-0.0117415
-0.0117093
-0.0117429
-0.0117093
-0.0116741
-0.0116363
-0.011672
-0.0116316
-0.0117477
-0.0117126
-0.0117571
-0.0117201
-0.0116729
-0.0116292
-0.0116775
-0.01163
-0.0116372
-0.0116492
-0.0116021
-0.0116128
-0.0116261
-0.0115912
-0.0115679
-0.011577
-0.0115361
-0.0115437
-0.0115572
-0.0115255
-0.0116156
-0.0115799
-0.0116058
-0.0115684
-0.011545
-0.0115124
-0.0115318
-0.0114973
-0.0115085
-0.0115151
-0.0114868
-0.0114934
-0.0114977
-0.0114748
-0.0114722
-0.0114801
-0.0114659
-0.0114766
-0.0114581
-0.0114484
-0.0114832
-0.0114583
-0.011466
-0.0114384
-0.0114385
-0.0114246
-0.0114152
-0.0113968
-0.0115968
-0.011557
-0.0115889
-0.0115458
-0.0115176
-0.0114806
-0.0115028
-0.0114627
-0.0115824
-0.0115352
-0.0115776
-0.0115255
-0.0114873
-0.0114435
-0.011471
-0.0114233
-0.0114465
-0.0114157
-0.0114259
-0.0113918
-0.0113886
-0.0113649
-0.0113617
-0.0113342
-0.0114039
-0.0113668
-0.0113812
-0.0113415
-0.0113341
-0.0113044
-0.0113076
-0.0112788
-0.0118326
-0.0118465
-0.0118444
-0.0119005
-0.0118936
-0.0118794
-0.0118292
-0.0118049
-0.0118581
-0.0118301
-0.0119431
-0.0119326
-0.0119146
-0.0120004
-0.0119802
-0.0119565
-0.0118908
-0.0118608
-0.0119296
-0.0118982
-0.0117727
-0.0117332
-0.0117952
-0.0117527
-0.011687
-0.0116347
-0.0117025
-0.011645
-0.0118241
-0.0117793
-0.0118608
-0.0118149
-0.0117254
-0.0116627
-0.011759
-0.0116925
-0.0120446
-0.012023
-0.0119987
-0.0121
-0.0120705
-0.0120437
-0.0119719
-0.0119416
-0.0120178
-0.0119907
-0.0121174
-0.012102
-0.0120831
-0.0121892
-0.0121588
-0.0121311
-0.0120639
-0.0120451
-0.0121126
-0.012102
-0.0119064
-0.0118633
-0.0119605
-0.0119235
-0.0118105
-0.0117449
-0.0118762
-0.0118091
-0.0120267
-0.0120077
-0.0120988
-0.0121083
-0.0119867
-0.011959
-0.012134
-0.0120297
-0.011575
-0.0115166
-0.0115763
-0.0115115
-0.0114528
-0.0114013
-0.0114353
-0.0113787
-0.0115826
-0.0115088
-0.0116009
-0.0115198
-0.0114127
-0.0113561
-0.0113994
-0.00984796
-0.0113583
-0.0113159
-0.0113349
-0.011291
-0.01128
-0.0112523
-0.0112482
-0.0112145
-0.0113223
-0.0112776
-0.00455466
0.000370798
-0.0112186
-0.0111658
-7.51125e-05
-0.0053028
-0.0116447
-0.0108569
-0.0112304
0.000856312
-0.00188046
0.0135097
0.0239497
0.0412303
-0.00402605
0.0221701
0.00896544
0.0386756
0.043788
0.047225
0.0474774
0.0474766
0.0245721
0.0296053
0.0470899
0.0472473
0.0290953
0.0230738
0.0472132
0.0464241
0.0473378
0.0473803
0.0475069
0.0475222
0.0473836
0.0473643
0.0475396
0.0475736
-0.0114682
-0.0114828
-0.0114797
-0.0114987
-0.0114463
-0.0114529
-0.011501
-0.011524
-0.0115336
-0.0115588
-0.0114693
-0.0114989
-0.011417
-0.0114167
-0.0113833
-0.0113754
-0.0114251
-0.0114466
-0.011374
-0.0113848
-0.0115783
-0.0116026
-0.0116378
-0.0116552
-0.0115447
-0.0116143
-0.011709
-0.0117132
-0.0117901
-0.0117727
-0.0117075
-0.0118339
-0.0114872
-0.0115617
-0.0114145
-0.0114887
-0.0116893
-0.0119038
-0.0111854
0.000564313
-0.0113441
-0.0113245
-0.0113084
-0.01128
-0.011305
-0.0112845
-0.0112437
-0.0111884
-0.0112773
-0.0112457
-0.0112588
-0.0112396
-0.0112011
-0.01112
-0.0112156
-0.0111578
-0.0112632
-0.0112619
-0.0110932
-0.0093951
0.00655395
0.0481249
0.0369516
0.0945848
-0.0109614
-0.00673501
-0.0110515
-0.00845177
0.0514792
0.106381
0.0434116
0.100032
-0.0118443
-0.0118177
-0.0118588
-0.0118404
-0.0119038
-0.0118954
-0.0118405
-0.0118427
-0.0118452
-0.0118517
-0.0118318
-0.0118289
-0.0119997
-0.0119368
0.0197039
0.0237979
-0.0118023
-0.0118215
0.00753412
-0.00851028
-0.011863
-0.0118639
-0.0118561
-0.0118635
-0.0118636
-0.0118486
-0.0118564
-0.0118636
-0.0118494
-0.0118579
-0.011853
-0.0118442
-0.0119023
-0.0118632
-0.0118731
-0.0118303
-0.0118641
-0.0118465
-0.0118518
-0.0118396
0.0795765
0.083628
0.107523
0.107549
0.0633366
0.0195862
0.103617
0.0581414
0.107281
0.107365
0.107393
0.107414
0.107447
0.073378
0.107001
0.0652826
-0.00973632
-0.0119361
0.00231809
-0.0119439
-0.0119012
-0.0118628
-0.0118916
-0.0118565
0.0137314
-0.0117893
0.00617653
-0.0116473
-0.0118236
-0.0118284
-0.011756
-0.0118075
-0.0112448
-0.0112519
-0.0112226
-0.0112611
-0.0112685
-0.0112727
-0.0113162
-0.0113646
-0.0111909
-0.0112676
-0.0100857
-0.011272
-0.0113667
-0.0114514
-0.011428
-0.0115374
-0.0112898
-0.0112831
-0.0114323
-0.0115064
0.0148328
0.0654152
-0.0080514
0.0127324
-0.0115388
-0.0116375
-0.0116219
-0.0117075
-0.011815
-0.012044
-0.0118201
-0.0119638
0.0109461
-0.00390487
0.0390578
0.0198425
-0.0113214
-0.0116551
-0.00221868
-0.0117759
0.0473944
0.0419729
0.047662
0.0478468
0.0171228
-0.00719311
0.0338563
0.00367575
-0.011717
-0.0117642
-0.011835
-0.0118229
-0.0118124
-0.011876
-0.0118021
-0.0117922
-0.01204
-0.0119213
-0.0122514
-0.0120112
-0.0118052
-0.0117073
-0.0117655
-0.0115095
0.0978472
0.102159
0.0378995
0.0422736
0.0817826
0.0310704
0.0223423
-0.00288655
-0.0122316
-0.0122028
-0.012079
-0.0120775
-0.0123076
-0.0121887
-0.0122308
-0.0121841
-0.00728968
-0.0117121
-0.0118162
-0.0119152
-0.0117798
-0.0118326
-0.0118901
-0.0119005
-0.0119382
-0.0119786
-0.0120306
-0.0120643
-0.0119417
-0.0119431
-0.012013
-0.0120004
-0.0119519
-0.0119732
-0.0118032
-0.0118037
-0.0122474
-0.0122269
-0.0122872
-0.0123074
-0.0110541
0.00537838
0.0108138
0.0719384
0.0260975
0.015656
0.116545
0.0998915
-0.0120445
-0.0121078
-0.0120668
-0.0122
-0.0120511
-0.0120446
-0.0121108
-0.0121
-0.00594778
-0.0121418
0.0344202
-0.0105011
-0.0121006
-0.0121174
-0.0122475
-0.0121892
-0.0122436
-0.0122021
-0.012169
-0.0122228
-0.0121971
-0.0121778
-0.012153
-0.0121512
-0.0121719
-0.0121806
-0.0122323
-0.0121998
-0.0121831
-0.0122096
-0.0121839
-0.0121724
-0.0121799
-0.0121929
-0.0121715
-0.0121848
-0.0121626
-0.0121994
-0.0122043
-0.0122601
-0.0122663
-0.0104689
-0.012352
-0.00889893
-0.0122228
-0.0122846
-0.0122144
-0.0122707
-0.0123849
-0.0105564
-0.0123634
-0.0123731
-0.0121779
-0.0121583
-0.0121499
-0.0121423
-0.012128
-0.0121209
-0.0121493
-0.0121594
-0.0121187
-0.0121232
-0.0121032
-0.0120927
-0.0120857
-0.0120651
-0.0120568
-0.0120494
-0.0120812
-0.0120796
-0.0120422
-0.0120353
-0.0121823
-0.0122232
-0.0121364
-0.012159
-0.0122901
-0.0123968
-0.0121958
-0.0122477
-0.0120822
-0.0120872
-0.0120291
-0.0120205
-0.0120964
-0.0121047
-0.0120094
-0.0119871
0.018264
0.0464827
0.0214276
0.0481073
0.0477453
0.0476716
0.0478911
0.0477742
0.0186337
0.0469729
0.00955937
0.0396956
0.0479201
0.0477772
0.0478375
0.0476789
0.0476394
0.0476273
0.0477041
0.0476704
0.0476413
0.0476961
0.0476735
0.0477304
0.0476881
0.0476331
0.0475879
0.0475116
0.0476175
0.0476596
0.047472
0.0474895
-0.00393274
0.0232026
-0.0117242
0.00111204
0.0446693
0.0474992
0.0248327
0.0416723
-0.0121028
-0.0112593
-0.0119462
-0.0118781
-0.00182466
0.01377
-0.0117066
-0.00995968
0.0474145
0.047303
0.0470933
0.0470268
0.0472316
0.0472234
0.0469162
0.0461226
0.0244263
0.0290056
-0.00466877
1.47143e-05
0.0282968
0.0223055
-0.00059229
-0.00583459
-0.0120274
-0.0120205
-0.0120124
-0.0119927
-0.0119863
-0.0119774
-0.012003
-0.0119918
-0.0119661
-0.0119519
-0.0119605
-0.0119542
-0.0119447
-0.0119321
-0.0119257
-0.0119155
-0.011932
-0.0119157
-0.0119018
-0.0118842
-0.0119791
-0.0119619
-0.0119347
-0.0119121
-0.0119396
-0.0119046
-0.0118832
-0.0118424
-0.0118957
-0.0118703
-0.0118626
-0.0118358
-0.0118388
-0.0117976
-0.0118035
-0.0117636
-0.0119075
-0.0119007
-0.01189
-0.0118871
-0.0118797
-0.0118684
-0.0118754
-0.0118569
-0.0118531
-0.011834
-0.0118706
-0.0118626
-0.0118506
-0.0118579
-0.0118494
-0.0118367
-0.0118347
-0.011815
-0.01182
-0.0117997
-0.0118344
-0.0118072
-0.0118109
-0.0117837
-0.0117752
-0.0117373
-0.0117523
-0.0117164
-0.0117915
-0.0117643
-0.0117758
-0.0117484
-0.0117334
-0.0116991
-0.0117178
-0.0116845
-0.0118538
-0.011777
-0.0117885
-0.0117144
-0.0116489
-0.0115086
-0.0116171
-0.0115097
-0.0117467
-0.0116818
-0.0117166
-0.0116605
-0.0116051
-0.0115212
-0.0115987
-0.0115339
-0.0113476
-0.0111791
-0.011399
-0.0112984
-0.0111159
-0.0111689
-0.0112551
-0.0112843
-0.0114411
-0.0113771
-0.0114751
-0.0114307
-0.0113483
-0.0113648
-0.0114095
-0.0114186
-0.0116943
-0.0116457
-0.0116768
-0.0116339
-0.0115945
-0.0115431
-0.0115901
-0.0115477
-0.0116621
-0.0116232
-0.0116492
-0.0116128
-0.0115844
-0.0115478
-0.011577
-0.0115437
-0.0114978
-0.0114647
-0.0115111
-0.0114844
-0.0114484
-0.0114531
-0.0114705
-0.011472
-0.0115164
-0.0114932
-0.0115151
-0.0114934
-0.0114803
-0.0114793
-0.0114801
-0.0114766
0.0478086
0.048015
0.0478466
0.0480439
0.04318
0.0128311
0.0460724
0.015694
0.0477613
0.0479394
0.0475646
0.0477108
0.0428702
0.0125891
0.0333465
0.00327712
-0.0123882
-0.0121108
-0.0124509
-0.0122297
-0.0118477
-0.0115722
-0.0120935
-0.0120094
-0.0124076
-0.0122523
-0.0122761
-0.0121897
-0.0121906
-0.0121913
-0.0121618
-0.0121682
0.0472762
0.0415565
0.0385222
0.0190641
0.0164972
-0.00745779
-0.00268779
-0.0118815
0.0101956
-0.00442574
-0.0103958
-0.0114231
-0.0115184
-0.0117837
-0.0115786
-0.0116927
-0.0121063
-0.012096
-0.0119634
-0.0119977
-0.0121117
-0.0121424
-0.0120366
-0.0120771
-0.0118567
-0.0119141
-0.0117766
-0.011845
-0.0119666
-0.0120133
-0.0119041
-0.0119538
0.0430899
0.132793
0.0399879
0.13032
0.168679
0.162594
0.16898
0.159362
0.00682675
0.0628478
-0.0122087
-0.00156081
0.1043
0.08565
0.0135537
0.00467256
0.0796916
-0.00443582
0.0760278
-0.00487017
-0.0123604
-0.0122436
-0.0122897
-0.0122228
0.0263443
-0.0110868
-0.0104781
-0.0122857
-0.0122872
-0.0122323
-0.0122428
-0.0122096
-0.0122067
-0.0122799
-0.0121275
-0.0121805
-0.0122477
-0.0122469
-0.0121761
-0.0121761
-0.0120584
-0.0120983
-0.0119973
-0.0120323
-0.0121087
-0.0121159
-0.0120499
-0.0120616
-0.0122779
-0.0122285
-0.0121959
-0.0121731
-0.0121996
-0.0121779
-0.0121553
-0.0121423
-0.0121304
-0.012122
-0.0120747
-0.012075
-0.0121114
-0.0121032
-0.0120701
-0.0120651
-0.011289
-0.0114267
-0.0113572
-0.0114499
-0.0115464
-0.0116456
-0.0115402
-0.0116224
-0.0114111
-0.0114754
-0.0114495
-0.0114957
-0.0115438
-0.011611
-0.0115487
-0.0116041
-0.0117265
-0.0117951
-0.0116947
-0.0117587
-0.0118544
-0.0119041
-0.0118152
-0.0118633
-0.0116741
-0.0117323
-0.0116593
-0.0117122
-0.0117852
-0.0118312
-0.0117619
-0.011806
-0.0114743
-0.0115086
-0.0114869
-0.0115132
-0.0115507
-0.0115977
-0.0115479
-0.011589
-0.0114895
-0.0115101
-0.0114828
-0.0114987
-0.0115395
-0.0115767
-0.011524
-0.0115588
-0.0116469
-0.0116962
-0.0116345
-0.0116824
-0.011744
-0.0117874
-0.0117303
-0.0117749
-0.0116205
-0.0116693
-0.0116026
-0.0116552
-0.0117202
-0.0117693
-0.0117132
-0.0117727
-0.0119464
-0.0119797
-0.0119042
-0.0119363
-0.0120013
-0.0120161
-0.0119596
-0.0119763
-0.0118705
-0.0119018
-0.0118441
-0.0118744
-0.0119253
-0.0119425
-0.0118972
-0.0119143
-0.0120283
-0.0120324
-0.0119886
-0.0119947
-0.0120308
-0.0120274
-0.0119952
-0.0119927
-0.0119546
-0.0119613
-0.0119262
-0.0119328
-0.0119627
-0.0119605
-0.0119345
-0.0119321
-0.0118248
-0.0118539
-0.0118127
-0.0118406
-0.0118752
-0.0118913
-0.011859
-0.0118737
-0.0118092
-0.0118353
-0.0118177
-0.0118404
-0.0118483
-0.0118606
-0.0118427
-0.0118517
-0.0119027
-0.0119087
-0.0118845
-0.0118894
-0.0119102
-0.0119075
-0.0118904
-0.0118871
-0.0118712
-0.0118741
-0.0118639
-0.0118635
-0.0118747
-0.0118706
-0.0118636
-0.0118588

SCALARS U float
LOOKUP_TABLE default
0.0208942
0.0211242
0.0206132
0.0208567
0.0213464
0.0211006
0.0211503
0.0213606
0.0215612
0.0215634
0.0213439
0.0217728
0.0215833
0.0217544
0.0219381
0.0213411
0.0215382
0.0217259
0.021428
0.0216326
0.021824
0.0219041
0.0220706
0.0219996
0.0221597
0.0219654
0.0218095
0.0221278
0.0220089
0.0221032
0.0222371
0.0222421
0.0221628
0.0222873
0.0222485
0.0223225
0.0223396
0.0222172
0.0223327
0.0222977
0.0224056
0.0224008
0.0224024
0.0224687
0.0224684
0.0213023
0.0216053
0.0218416
0.0211923
0.0215569
0.0218208
0.0220337
0.0221978
0.0220201
0.0221841
0.0212103
0.021547
0.0217905
0.0213682
0.0215837
0.0217506
0.0219697
0.0221186
0.0218768
0.0219917
0.0223354
0.0224453
0.0223225
0.0224407
0.0225158
0.0225286
0.0225303
0.0225732
0.0222521
0.0223817
0.0221126
0.0222567
0.0225025
0.022597
0.0224249
0.0226045
0.0222414
0.022241
0.0220854
0.0221169
0.0222677
0.0220893
0.0218077
0.0218599
0.0214095
0.0214681
0.0217943
0.021385
0.0223166
0.022125
0.0223823
0.022189
0.0218169
0.0213936
0.0218738
0.0214355
0.0209098
0.020961
0.0203433
0.020378
0.0208799
0.0203119
0.0197567
0.0197739
0.0191994
0.0192058
0.0197253
0.0191669
0.0208736
0.0202905
0.0208924
0.0202816
0.0196911
0.0191249
0.0196574
0.0190786
0.0224584
0.0222777
0.0225398
0.0223924
0.0219646
0.0215118
0.0220958
0.0216308
0.022631
0.02255
0.0227599
0.022808
0.0222945
0.0218222
0.022644
0.0221759
0.0209365
0.0202818
0.0210102
0.0202861
0.0196155
0.0190124
0.0195485
0.0188967
0.0211326
0.0202899
0.0213694
0.020312
0.0194197
0.0186619
0.0191941
0.0182252
0.0215082
0.0215913
0.0216608
0.0214583
0.0214717
0.0214647
0.0217165
0.021786
0.0214548
0.0214787
0.0212786
0.0212211
0.0211447
0.020906
0.0208078
0.0206835
0.0210733
0.0210537
0.0205607
0.0204984
0.02189
0.0220563
0.0215682
0.0217721
0.0222994
0.0226245
0.022138
0.0227159
0.021132
0.0213935
0.0205602
0.0208804
0.0219448
0.0229113
0.0216372
0.0230465
0.0204381
0.0202739
0.0200988
0.0198303
0.019607
0.0193972
0.0199238
0.0198059
0.019175
0.0189767
0.0190183
0.0188214
0.0186186
0.0175998
0.0178254
0.0177868
0.0183622
0.0180543
0.0175595
0.0171472
0.0198169
0.0201265
0.0188576
0.0189684
0.0209523
0.0225633
0.0194742
0.0205728
0.0177102
0.0173848
0.0165337
0.0156241
0.0171054
0.0168905
0.0142871
0.012337
0.0230053
0.0233036
0.0235004
0.0242285
0.0233202
0.0228649
0.0245243
0.0240419
0.0242959
0.025566
0.0250454
0.0266139
0.026104
0.025441
0.0269235
0.0257886
0.02184
0.0203891
0.0226149
0.0205361
0.018819
0.0174497
0.0182868
0.0163039
0.0233976
0.0206058
0.0232928
0.0203897
0.017726
0.0151218
0.0176669
0.0149952
0.0246367
0.025653
0.0215711
0.0210659
0.0248142
0.0229816
0.0191333
0.0175198
0.0160922
0.0142837
0.00986503
0.00805355
0.0127134
0.0128285
0.00826587
0.0105391
0.0211424
0.0197855
0.0175629
0.0188089
0.0187305
0.0172962
0.0202498
0.0210978
0.0149217
0.0180628
0.0140605
0.0179737
0.0212718
0.0240433
0.0218149
0.0254927
0.0187146
0.018722
0.0183328
0.0183539
0.0186787
0.0182903
0.0180714
0.0181151
0.017935
0.0180039
0.0180191
0.0178676
0.0186367
0.0182555
0.0185967
0.0182446
0.0179962
0.01785
0.0180366
0.0179466
0.0179246
0.0180122
0.0180284
0.0181245
0.0178365
0.0179093
0.0182366
0.0183154
0.0185453
0.0185622
0.0181329
0.0185402
0.0178043
0.0178388
0.0179444
0.0179923
0.0181125
0.0186607
0.0183255
0.0190061
0.0185362
0.018233
0.018419
0.0181815
0.0181133
0.018142
0.0181951
0.0184378
0.0181416
0.0179447
0.0175929
0.0174043
0.0180714
0.0185097
0.017623
0.0182195
0.0182573
0.0183192
0.0188066
0.0190607
0.0183762
0.01872
0.0189685
0.0189168
0.019119
0.0196964
0.0190258
0.0201609
0.0200058
0.0201645
0.0210816
0.0212422
0.0188557
0.0188115
0.0191013
0.0190305
0.018918
0.0191529
0.0194242
0.0192815
0.0198213
0.0195725
0.0195879
0.0201804
0.0190381
0.0191605
0.0194842
0.0197498
0.0197823
0.0206954
0.0205319
0.0212949
0.0201257
0.0198422
0.0203852
0.0201012
0.0204931
0.0206842
0.0206518
0.0203618
0.0208942
0.0206099
0.0209303
0.0211503
0.0209331
0.0209417
0.0211671
0.0210243
0.0211477
0.0213411
0.0212378
0.021428
0.0192868
0.0198059
0.019279
0.019468
0.01994
0.0196346
0.019013
0.0185049
0.0202462
0.0195653
0.0210684
0.0197647
0.0190492
0.0194727
0.0190371
0.0203948
0.0196842
0.0203264
0.0188971
0.019911
0.0209213
0.0213023
0.0206955
0.0211923
0.0198095
0.0202001
0.0211633
0.0210153
0.0207834
0.0212103
0.021137
0.0213682
0.0165786
0.0163333
0.0150321
0.0146747
0.0166037
0.0172216
0.0150592
0.0157808
0.0133308
0.0127675
0.0127896
0.0117606
0.0133427
0.0145128
0.012139
0.0135714
0.0179383
0.0189901
0.0164302
0.0168753
0.0197803
0.0199766
0.0172314
0.017735
0.0156614
0.0163445
0.0152615
0.0164601
0.0169775
0.0175512
0.0173454
0.0179286
0.0154267
0.0137869
0.0206962
0.0190525
0.0131639
0.0140012
0.0172617
0.0167166
0.0255487
0.0250162
0.0285185
0.0299013
0.0230549
0.0213501
0.0291882
0.0271342
0.0156409