# vtk DataFile Version 2.0
Gerris simulation version 1.3.2 (131206-155120)
ASCII
DATASET UNSTRUCTURED_GRID

POINTS 1089 float
-0.5 0.46875 0
-0.46875 0.46875 0
-0.5 0.5 0
-0.46875 0.5 0
-0.4375 0.46875 0
-0.4375 0.5 0
-0.5 0.4375 0
-0.46875 0.4375 0
-0.4375 0.4375 0
-0.40625 0.46875 0
-0.40625 0.5 0
-0.375 0.46875 0
-0.375 0.5 0
-0.40625 0.4375 0
-0.375 0.4375 0
-0.5 0.40625 0
-0.46875 0.40625 0
-0.4375 0.40625 0
-0.5 0.375 0
-0.46875 0.375 0
-0.4375 0.375 0
-0.40625 0.40625 0
-0.375 0.40625 0
-0.40625 0.375 0
-0.375 0.375 0
-0.34375 0.46875 0
-0.34375 0.5 0
-0.3125 0.46875 0
-0.3125 0.5 0
-0.34375 0.4375 0
-0.3125 0.4375 0
-0.28125 0.46875 0
-0.28125 0.5 0
-0.25 0.46875 0
-0.25 0.5 0
-0.28125 0.4375 0
-0.25 0.4375 0
-0.34375 0.40625 0
-0.3125 0.40625 0
-0.34375 0.375 0
-0.3125 0.375 0
-0.28125 0.40625 0
-0.25 0.40625 0
-0.28125 0.375 0
-0.25 0.375 0
-0.5 0.34375 0
-0.46875 0.34375 0
-0.4375 0.34375 0
-0.5 0.3125 0
-0.46875 0.3125 0
-0.4375 0.3125 0
-0.40625 0.34375 0
-0.375 0.34375 0
-0.40625 0.3125 0
-0.375 0.3125 0
-0.5 0.28125 0
-0.46875 0.28125 0
-0.4375 0.28125 0
-0.5 0.25 0
-0.46875 0.25 0
-0.4375 0.25 0
-0.40625 0.28125 0
-0.375 0.28125 0
-0.40625 0.25 0
-0.375 0.25 0
-0.34375 0.34375 0
-0.3125 0.34375 0
-0.34375 0.3125 0
-0.3125 0.3125 0
-0.28125 0.34375 0
-0.25 0.34375 0
-0.28125 0.3125 0
-0.25 0.3125 0
-0.34375 0.28125 0
-0.3125 0.28125 0
-0.34375 0.25 0
-0.3125 0.25 0
-0.28125 0.28125 0
-0.25 0.28125 0
-0.28125 0.25 0
-0.25 0.25 0
-0.21875 0.46875 0
-0.21875 0.5 0
-0.1875 0.46875 0
-0.1875 0.5 0
-0.21875 0.4375 0
-0.1875 0.4375 0
-0.15625 0.46875 0
-0.15625 0.5 0
-0.125 0.46875 0
-0.125 0.5 0
-0.15625 0.4375 0
-0.125 0.4375 0
-0.21875 0.40625 0
-0.1875 0.40625 0
-0.21875 0.375 0
-0.1875 0.375 0
-0.15625 0.40625 0
-0.125 0.40625 0
-0.15625 0.375 0
-0.125 0.375 0
-0.09375 0.46875 0
-0.09375 0.5 0
-0.0625 0.46875 0
-0.0625 0.5 0
-0.09375 0.4375 0
-0.0625 0.4375 0
-0.03125 0.46875 0
-0.03125 0.5 0
0 0.46875 0
0 0.5 0
-0.03125 0.4375 0
0 0.4375 0
-0.09375 0.40625 0
-0.0625 0.40625 0
-0.09375 0.375 0
-0.0625 0.375 0
-0.03125 0.40625 0
0 0.40625 0
-0.03125 0.375 0
0 0.375 0
-0.21875 0.34375 0
-0.1875 0.34375 0
-0.21875 0.3125 0
-0.1875 0.3125 0
-0.15625 0.34375 0
-0.125 0.34375 0
-0.15625 0.3125 0
-0.125 0.3125 0
-0.21875 0.28125 0
-0.1875 0.28125 0
-0.21875 0.25 0
-0.1875 0.25 0
-0.15625 0.28125 0
-0.125 0.28125 0
-0.15625 0.25 0
-0.125 0.25 0
-0.09375 0.34375 0
-0.0625 0.34375 0
-0.09375 0.3125 0
-0.0625 0.3125 0
-0.03125 0.34375 0
0 0.34375 0
-0.03125 0.3125 0
0 0.3125 0
-0.09375 0.28125 0
-0.0625 0.28125 0
-0.09375 0.25 0
-0.0625 0.25 0
-0.03125 0.28125 0
0 0.28125 0
-0.03125 0.25 0
0 0.25 0
-0.5 0.21875 0
-0.46875 0.21875 0
-0.4375 0.21875 0
-0.5 0.1875 0
-0.46875 0.1875 0
-0.4375 0.1875 0
-0.40625 0.21875 0
-0.375 0.21875 0
-0.40625 0.1875 0
-0.375 0.1875 0
-0.5 0.15625 0
-0.46875 0.15625 0
-0.4375 0.15625 0
-0.5 0.125 0
-0.46875 0.125 0
-0.4375 0.125 0
-0.40625 0.15625 0
-0.375 0.15625 0
-0.40625 0.125 0
-0.375 0.125 0
-0.34375 0.21875 0
-0.3125 0.21875 0
-0.34375 0.1875 0
-0.3125 0.1875 0
-0.28125 0.21875 0
-0.25 0.21875 0
-0.28125 0.1875 0
-0.25 0.1875 0
-0.34375 0.15625 0
-0.3125 0.15625 0
-0.34375 0.125 0
-0.3125 0.125 0
-0.28125 0.15625 0
-0.25 0.15625 0
-0.28125 0.125 0
-0.25 0.125 0
-0.5 0.09375 0
-0.46875 0.09375 0
-0.4375 0.09375 0
-0.5 0.0625 0
-0.46875 0.0625 0
-0.4375 0.0625 0
-0.40625 0.09375 0
-0.375 0.09375 0
-0.40625 0.0625 0
-0.375 0.0625 0
-0.5 0.03125 0
-0.46875 0.03125 0
-0.4375 0.03125 0
-0.5 0 0
-0.46875 0 0
-0.4375 0 0
-0.40625 0.03125 0
-0.375 0.03125 0
-0.40625 0 0
-0.375 0 0
-0.34375 0.09375 0
-0.3125 0.09375 0
-0.34375 0.0625 0
-0.3125 0.0625 0
-0.28125 0.09375 0
-0.25 0.09375 0
-0.28125 0.0625 0
-0.25 0.0625 0
-0.34375 0.03125 0
-0.3125 0.03125 0
-0.34375 0 0
-0.3125 0 0
-0.28125 0.03125 0
-0.25 0.03125 0
-0.28125 0 0
-0.25 0 0
-0.21875 0.21875 0
-0.1875 0.21875 0
-0.21875 0.1875 0
-0.1875 0.1875 0
-0.15625 0.21875 0
-0.125 0.21875 0
-0.15625 0.1875 0
-0.125 0.1875 0
-0.21875 0.15625 0
-0.1875 0.15625 0
-0.21875 0.125 0
-0.1875 0.125 0
-0.15625 0.15625 0
-0.125 0.15625 0
-0.15625 0.125 0
-0.125 0.125 0
-0.09375 0.21875 0
-0.0625 0.21875 0
-0.09375 0.1875 0
-0.0625 0.1875 0
-0.03125 0.21875 0
0 0.21875 0
-0.03125 0.1875 0
0 0.1875 0
-0.09375 0.15625 0
-0.0625 0.15625 0
-0.09375 0.125 0
-0.0625 0.125 0
-0.03125 0.15625 0
0 0.15625 0
-0.03125 0.125 0
0 0.125 0
-0.21875 0.09375 0
-0.1875 0.09375 0
-0.21875 0.0625 0
-0.1875 0.0625 0
-0.15625 0.09375 0
-0.125 0.09375 0
-0.15625 0.0625 0
-0.125 0.0625 0
-0.21875 0.03125 0
-0.1875 0.03125 0
-0.21875 0 0
-0.1875 0 0
-0.15625 0.03125 0
-0.125 0.03125 0
-0.15625 0 0
-0.125 0 0
-0.09375 0.09375 0
-0.0625 0.09375 0
-0.09375 0.0625 0
-0.0625 0.0625 0
-0.03125 0.09375 0
0 0.09375 0
-0.03125 0.0625 0
0 0.0625 0
-0.09375 0.03125 0
-0.0625 0.03125 0
-0.09375 0 0
-0.0625 0 0
-0.03125 0.03125 0
0 0.03125 0
-0.03125 0 0
0 0 0
0.03125 0.46875 0
0.03125 0.5 0
0.0625 0.46875 0
0.0625 0.5 0
0.03125 0.4375 0
0.0625 0.4375 0
0.09375 0.46875 0
0.09375 0.5 0
0.125 0.46875 0
0.125 0.5 0
0.09375 0.4375 0
0.125 0.4375 0
0.03125 0.40625 0
0.0625 0.40625 0
0.03125 0.375 0
0.0625 0.375 0
0.09375 0.40625 0
0.125 0.40625 0
0.09375 0.375 0
0.125 0.375 0
0.15625 0.46875 0
0.15625 0.5 0
0.1875 0.46875 0
0.1875 0.5 0
0.15625 0.4375 0
0.1875 0.4375 0
0.21875 0.46875 0
0.21875 0.5 0
0.25 0.46875 0
0.25 0.5 0
0.21875 0.4375 0
0.25 0.4375 0
0.15625 0.40625 0
0.1875 0.40625 0
0.15625 0.375 0
0.1875 0.375 0
0.21875 0.40625 0
0.25 0.40625 0
0.21875 0.375 0
0.25 0.375 0
0.03125 0.34375 0
0.0625 0.34375 0
0.03125 0.3125 0
0.0625 0.3125 0
0.09375 0.34375 0
0.125 0.34375 0
0.09375 0.3125 0
0.125 0.3125 0
0.03125 0.28125 0
0.0625 0.28125 0
0.03125 0.25 0
0.0625 0.25 0
0.09375 0.28125 0
0.125 0.28125 0
0.09375 0.25 0
0.125 0.25 0
0.15625 0.34375 0
0.1875 0.34375 0
0.15625 0.3125 0
0.1875 0.3125 0
0.21875 0.34375 0
0.25 0.34375 0
0.21875 0.3125 0
0.25 0.3125 0
0.15625 0.28125 0
0.1875 0.28125 0
0.15625 0.25 0
0.1875 0.25 0
0.21875 0.28125 0
0.25 0.28125 0
0.21875 0.25 0
0.25 0.25 0
0.28125 0.46875 0
0.28125 0.5 0
0.3125 0.46875 0
0.3125 0.5 0
0.28125 0.4375 0
0.3125 0.4375 0
0.34375 0.46875 0
0.34375 0.5 0
0.375 0.46875 0
0.375 0.5 0
0.34375 0.4375 0
0.375 0.4375 0
0.28125 0.40625 0
0.3125 0.40625 0
0.28125 0.375 0
0.3125 0.375 0
0.34375 0.40625 0
0.375 0.40625 0
0.34375 0.375 0
0.375 0.375 0
0.40625 0.46875 0
0.40625 0.5 0
0.4375 0.46875 0
0.4375 0.5 0
0.40625 0.4375 0
0.4375 0.4375 0
0.46875 0.46875 0
0.46875 0.5 0
0.5 0.46875 0
0.5 0.5 0
0.46875 0.4375 0
0.5 0.4375 0
0.40625 0.40625 0
0.4375 0.40625 0
0.40625 0.375 0
0.4375 0.375 0
0.46875 0.40625 0
0.5 0.40625 0
0.46875 0.375 0
0.5 0.375 0
0.28125 0.34375 0
0.3125 0.34375 0
0.28125 0.3125 0
0.3125 0.3125 0
0.34375 0.34375 0
0.375 0.34375 0
0.34375 0.3125 0
0.375 0.3125 0
0.28125 0.28125 0
0.3125 0.28125 0
0.28125 0.25 0
0.3125 0.25 0
0.34375 0.28125 0
0.375 0.28125 0
0.34375 0.25 0
0.375 0.25 0
0.40625 0.34375 0
0.4375 0.34375 0
0.40625 0.3125 0
0.4375 0.3125 0
0.46875 0.34375 0
0.5 0.34375 0
0.46875 0.3125 0
0.5 0.3125 0
0.40625 0.28125 0
0.4375 0.28125 0
0.40625 0.25 0
0.4375 0.25 0
0.46875 0.28125 0
0.5 0.28125 0
0.46875 0.25 0
0.5 0.25 0
0.03125 0.21875 0
0.0625 0.21875 0
0.03125 0.1875 0
0.0625 0.1875 0
0.09375 0.21875 0
0.125 0.21875 0
0.09375 0.1875 0
0.125 0.1875 0
0.03125 0.15625 0
0.0625 0.15625 0
0.03125 0.125 0
0.0625 0.125 0
0.09375 0.15625 0
0.125 0.15625 0
0.09375 0.125 0
0.125 0.125 0
0.15625 0.21875 0
0.1875 0.21875 0
0.15625 0.1875 0
0.1875 0.1875 0
0.21875 0.21875 0
0.25 0.21875 0
0.21875 0.1875 0
0.25 0.1875 0
0.15625 0.15625 0
0.1875 0.15625 0
0.15625 0.125 0
0.1875 0.125 0
0.21875 0.15625 0
0.25 0.15625 0
0.21875 0.125 0
0.25 0.125 0
0.03125 0.09375 0
0.0625 0.09375 0
0.03125 0.0625 0
0.0625 0.0625 0
0.09375 0.09375 0
0.125 0.09375 0
0.09375 0.0625 0
0.125 0.0625 0
0.03125 0.03125 0
0.0625 0.03125 0
0.03125 0 0
0.0625 0 0
0.09375 0.03125 0
0.125 0.03125 0
0.09375 0 0
0.125 0 0
0.15625 0.09375 0
0.1875 0.09375 0
0.15625 0.0625 0
0.1875 0.0625 0
0.21875 0.09375 0
0.25 0.09375 0
0.21875 0.0625 0
0.25 0.0625 0
0.15625 0.03125 0
0.1875 0.03125 0
0.15625 0 0
0.1875 0 0
0.21875 0.03125 0
0.25 0.03125 0
0.21875 0 0
0.25 0 0
0.28125 0.21875 0
0.3125 0.21875 0
0.28125 0.1875 0
0.3125 0.1875 0
0.34375 0.21875 0
0.375 0.21875 0
0.34375 0.1875 0
0.375 0.1875 0
0.28125 0.15625 0
0.3125 0.15625 0
0.28125 0.125 0
0.3125 0.125 0
0.34375 0.15625 0
0.375 0.15625 0
0.34375 0.125 0
0.375 0.125 0
0.40625 0.21875 0
0.4375 0.21875 0
0.40625 0.1875 0
0.4375 0.1875 0
0.46875 0.21875 0
0.5 0.21875 0
0.46875 0.1875 0
0.5 0.1875 0
0.40625 0.15625 0
0.4375 0.15625 0
0.40625 0.125 0
0.4375 0.125 0
0.46875 0.15625 0
0.5 0.15625 0
0.46875 0.125 0
0.5 0.125 0
0.28125 0.09375 0
0.3125 0.09375 0
0.28125 0.0625 0
0.3125 0.0625 0
0.34375 0.09375 0
0.375 0.09375 0
0.34375 0.0625 0
0.375 0.0625 0
0.28125 0.03125 0
0.3125 0.03125 0
0.28125 0 0
0.3125 0 0
0.34375 0.03125 0
0.375 0.03125 0
0.34375 0 0
0.375 0 0
0.40625 0.09375 0
0.4375 0.09375 0
0.40625 0.0625 0
0.4375 0.0625 0
0.46875 0.09375 0
0.5 0.09375 0
0.46875 0.0625 0
0.5 0.0625 0
0.40625 0.03125 0
0.4375 0.03125 0
0.40625 0 0
0.4375 0 0
0.46875 0.03125 0
0.5 0.03125 0
0.46875 0 0
0.5 0 0
-0.5 -0.03125 0
-0.46875 -0.03125 0
-0.4375 -0.03125 0
-0.5 -0.0625 0
-0.46875 -0.0625 0
-0.4375 -0.0625 0
-0.40625 -0.03125 0
-0.375 -0.03125 0
-0.40625 -0.0625 0
-0.375 -0.0625 0
-0.5 -0.09375 0
-0.46875 -0.09375 0
-0.4375 -0.09375 0
-0.5 -0.125 0
-0.46875 -0.125 0
-0.4375 -0.125 0
-0.40625 -0.09375 0
-0.375 -0.09375 0
-0.40625 -0.125 0
-0.375 -0.125 0
-0.34375 -0.03125 0
-0.3125 -0.03125 0
-0.34375 -0.0625 0
-0.3125 -0.0625 0
-0.28125 -0.03125 0
-0.25 -0.03125 0
-0.28125 -0.0625 0
-0.25 -0.0625 0
-0.34375 -0.09375 0
-0.3125 -0.09375 0
-0.34375 -0.125 0
-0.3125 -0.125 0
-0.28125 -0.09375 0
-0.25 -0.09375 0
-0.28125 -0.125 0
-0.25 -0.125 0
-0.5 -0.15625 0
-0.46875 -0.15625 0
-0.4375 -0.15625 0
-0.5 -0.1875 0
-0.46875 -0.1875 0
-0.4375 -0.1875 0
-0.40625 -0.15625 0
-0.375 -0.15625 0
[...]
POINT_DATA 1089
SCALARS T float
LOOKUP_TABLE default
0
0
0
0
0
0
0
0
0
0
0
0
0
0
0
0
0
0
0
0
0
0
0
0
0
0
0
0
0
0
0
0
0
0
0
0
0
0
0
0
0
0
0
0
0
0
0
0
0
0
0
0
0
0
0
0
0
0
0
0
0
0
0
0
0
0
0
0
0
0
0
0
0
0
0
0
0
0
0
0
0
0
0
0
0
0
0
0
0
0
0
0
0
0
0
0
0
0
0
0
0
0
0
0
0
0
0
0
0
0
0
0
0
0
0
0
0
0
0
0
0
0
0
0
0
0
0
0
0
0
0
0
0
0
0
0
0
0
0
0
0
0
0
0
0
0
0
0
0
0
0
0
0
0
0
0
0
0
0
0
0
0
0
0
0
0
0
0
0
0
0
0
0
0
0
0
0
0
0
0
0
0
0
0
0
0
0
0
0
0
0
0
0
0
0
0
0
0
0
0
0
0
0
0
0
0
0
0
0.102584
0
0
0
0
0
0
0
0
0.0199772
0.0958418
0.367922
0.591203
0.155866
0.156395
0.655866
0.656395
0
0
0
0
0
0
0
0
0
0
0
0
0
0
0
0
0
0
0
0
0
0
0
0.0386815
0
0
0
0
0
0.127417
0
0.122706
0
0
0
0
0
0
0
0
0.161903
0.169653
0.661903
0.669653
0.110966
0.0268226
0.609013
0.394988
0
0
0
0
0
0.0339709
0
0
0
0
0.120119
6.83832e-07
0
0
0
0
0
0
0
0
0
0
0
0
0
0
0
0
0
0
0
0
0
0
0
0
0
0
0
0
0
0
0
0
0
0
0
0
0
0
0
0
0
0
0
0
0
0
0
0
0
0
0
0
0
0
0
0
0
0
0
0
0
0
0
0
0
0
0
0
0
0
0
0
0
0
0
0
0
0
0
0
0
0
0
0
0
0
0
0
0
0
0
0
0
0
0
0
0
0
0
0
0
0
0
0
0
0
0
0
0
0
0
0
0
0
0
0
0
0
0
0
0
0
0
0
0
0
0
0
0
0
0
0
0
0
0
0
0
0
0
0
0
0
0
0
0
0
0
0
0.0646016
0.250084
0.347338
0.744139
0.414412
0.445646
0.914412
0.945646
0.621471
0.994055
0.616254
0.993548
1
1
1
1
0.34678
0.1351
0.84678
0.499349
0.00503607
0
0.119285
0
1
0.793668
1
0.825362
0.293668
0
0.325362
0
0.349205
0.781935
0.071686
0.290644
0.966701
1
0.505493
0.577716
0
0.00225671
0
0
0.0387923
0.0777164
0
0
0.955505
0.62747
0.500544
0.235386
0.171965
0
0.0260228
0
0.0450388
0.00385794
0
0
0
0
0
0
0
0
0
0
0
0
0
0
0
0
0
0
0
0
0
0
0
0
0
0
0
0
0
0
0
0
0
0
0
0
0
0
0
0
0
0
0
0
0
0
0
0
0
0
0
0
0
0
0
0
0
0
0
0
0
0
0
0
0
0
0
0
0
0
0
0
0
0
0
0
0.0598364
0.410359
0.237906
0.735844
0
0
0.00251917
0
0
0.0165472
0.421121
0.918602
0.50708
0.990533
0.845884
0.995361
0.997939
1
1
1
1
1
1
1
1
1
1
1
1
1
0
0
0.0167396
0
0
0.00271156
0.508551
0.991811
0.42718
0.924468
0
0
0
0
0
0
0.252379
0.752268
0.0697426
0.445314
1
1
1
1
1
1
1
1
0.999889
1
0.875204
0.999633
1
1
1
1
1
1
1
1
0.998047
0.867687
1
0.999521
1
1
1
1
1
1
1
1
0.44281
0.073171
0.774567
0.275092
0
0
4.63851e-05
0
0.951875
0.481329
1
0.590792
0.029454
0
0.0907923
0
1
1
1
1
1
1
1
1
1
1
1
1
1
1
1
0.927464
1
0.610301
0.984016
0.539539
0.110301
0
0.0555229
0
0.861229
0.367836
0.563774
0.13631
0.00660693
0
0
0
0
0
0
0
0
0
2.00432e-05
0.125703
0
0
0
0
0
0
0
0
0
0
0
0
0.420485
0.654444
0.0451696
0.154811
0.725996
0.727834
0.225996
0.227834
0
0
0
0
0
0
0
0
0
0
0
0
0
0
0
0
0
0
0
0
0
0
0
0
0
0
0
0
0
0
0
0
0
0
0
0
0
0
0
0
0
0
0
0
0.727574
0.728896
0.227574
0.228896
0.679908
0.496512
0.179908
0.0690479
0
0
0
0
0
0
0
0
0.188502
0.0090967
0.00194098
0
0
0
0
0
0
0
0
0
0
0
0
0
0
0
0
0
0
0
0
0
0
0
0
0
0
0
0
0
0
0
0
0
0
0
0
0
0
0
0
0
0
0
0
0
0
0
0
0
0
0
0
0
0
0
0
0.0332808
0.0113582
0.0578924
0.264919
0.507278
0
0
0
0
0
0
0
0
0.0465342
0
0.296813
0.021174
0
0
0
0
0
0.205909
0
0.367896
0.676189
0.949385
0.867896
1
0
0.280492
0
0.0852235
0.774597
0.987881
0.345181
0.522192
0.70203
0.222928
0.905146
0.405149
2.6781e-06
0
2.6781e-06
0
0.782115
0.288339
0.347178
0.084944
0
0
0
0
0
0
0
0
0
0
0
0
0
0
0
0
0
0
0
0
0
0
0
0
0
0
0
0
0
0
0
0
0
0
0
0
0
0
0
0
0
0
0
0
0
0
0
0
0
0
0
0
0
0
0
0
0
0
0
0
0
0
0
0
0
0
0
0
0
0
0
0
0.0158524
0.0343109
0
0
0
0
0
0
0
0
0
0
0.0184585
0
0
0
0
0
0
0
0
0
0
0
0
0
0
0
0
0
0
0
0
0
0
0
0
0
0
0
0
0
0
0
0
0
0
0
0
0
0
0
0
0
0
0
0
0
0
0
0
0
0
0
0
0
0
0
0
0
0
0
0
0
0
0
0
0
0
0
0
0
0
0
0
0
0
0
0
0
0
0
0
0
0
0
0
0
0
0
0
0
0
0
0
0
0
0
0
0
0
0
0
0
0
0
0
0
0
0
0
0
0
0

SCALARS P float
LOOKUP_TABLE default
-0.00998428
-0.00993004
-0.0102091
-0.0101532
-0.00984456
-0.0100648
-0.00983595
-0.00979372
-0.00972794
-0.0097104
-0.00990718
-0.00953517
-0.0096809
-0.0096292
-0.00950698
-0.0097432
-0.00971687
-0.00967243
-0.00970338
-0.00969282
-0.00966701
-0.00960492
-0.00952479
-0.00962337
-0.00957287
-0.0093211
-0.0093749
-0.00908618
-0.00899068
-0.0093697
-0.00923888
-0.00888575
-0.0085971
-0.00881545
-0.00836845
-0.00915575
-0.00917497
-0.00944414
-0.0093851
-0.00953016
-0.00951766
-0.0093801
-0.00946192
-0.00956446
-0.00969469
-0.0097071
-0.00971008
-0.00969694
-0.00975173
-0.00976478
-0.00975742
-0.00966679
-0.00963159
-0.00972985
-0.00969508
-0.00982928
-0.00985392
-0.00984982
-0.00994308
-0.00998214
-0.00998255
-0.00981735
-0.00976975
-0.00994071
-0.00986807
-0.00960865
-0.00962162
-0.00967316
-0.00969002
-0.00970168
-0.00987312
-0.00978434
-0.0099898
-0.00972901
-0.00972153
-0.00978577
-0.00971589
-0.00979825
-0.0100125
-0.00972665
-0.00991273
-0.00897028
-0.00851153
-0.0093469
-0.00903564
-0.00934341
-0.0096474
-0.00981178
-0.0096864
-0.0102406
-0.0102814
-0.0100062
-0.0103274
-0.00965302
-0.00993369
-0.00992146
-0.0102202
-0.0102471
-0.0105122
-0.0105396
-0.0107949
-0.0105655
-0.0107346
-0.0107373
-0.0110034
-0.0105532
-0.0106294
-0.0107695
-0.0111332
-0.0106702
-0.0111284
-0.0105524
-0.0103323
-0.0106722
-0.0106618
-0.0109268
-0.0108449
-0.0104663
-0.010101
-0.0105237
-0.00999221
-0.0101486
-0.010497
-0.0103269
-0.0107578
-0.010861
-0.0111435
-0.0112167
-0.01159
-0.0104065
-0.0109344
-0.010367
-0.011034
-0.0115078
-0.0119892
-0.0117813
-0.0124358
-0.0112797
-0.0111416
-0.0118129
-0.011697
-0.0106957
-0.0100074
-0.011188
-0.0104046
-0.012325
-0.0122921
-0.0129794
-0.0131967
-0.0118681
-0.0113861
-0.0130334
-0.0132519
-0.010096
-0.0101654
-0.0101849
-0.0102954
-0.0104178
-0.0104806
-0.0101409
-0.010038
-0.0104523
-0.0103268
-0.010558
-0.0107662
-0.010916
-0.0108673
-0.0112128
-0.0115329
-0.0109476
-0.0108332
-0.0117376
-0.0117661
-0.0098883
-0.00969664
-0.0100923
-0.00970366
-0.00955268
-0.00962891
-0.00925775
-0.00907149
-0.0105021
-0.00980208
-0.011428
-0.0103192
-0.00879922
-0.00807684
-0.0083097
-0.00652396
-0.0112043
-0.0117315
-0.0123198
-0.0115325
-0.0122871
-0.0132823
-0.0128548
-0.0132641
-0.0144186
-0.0157452
-0.0117736
-0.0127671
-0.0142941
-0.0117759
-0.0129353
-0.0148573
-0.016445
-0.0197937
-0.0180435
-0.01558
-0.0132321
-0.0117374
-0.016801
-0.0152436
-0.00786719
-0.00394333
-0.00857265
-0.00132272
-0.021715
-0.0149242
0.00110895
0.0173164
-0.00306456
0.00470495
0.0209579
0.0208199
-0.010121
-0.0109564
-0.00956705
-0.010649
-0.0118989
-0.0127344
-0.0118197
-0.0127976
-0.00854724
-0.0100741
-0.00692328
-0.00929856
-0.0116298
-0.0128066
-0.0114754
-0.0126117
-0.0135733
-0.014291
-0.0137902
-0.0149393
-0.0150084
-0.0181145
-0.0169212
-0.0164965
-0.013721
-0.0149287
-0.0130384
-0.0133415
-0.0169555
0.00149189
-0.0144266
0.00359846
-0.00434442
-0.00861226
-0.00180699
-0.0092825
-0.0121171
-0.0131811
-0.0151071
-0.0159358
0.00437478
-0.00329721
0.0208952
0.0211059
-0.0139844
-0.0199824
0.0178829
0.00401513
-0.0129716
-0.0121307
-0.0144201
-0.012277
-0.0119645
-0.00966912
-0.0103299
-0.00975708
-0.0173624
-0.0127262
-0.0107446
-0.0127706
-0.00910442
-0.00611908
-0.00830984
-0.00454856
-0.0104747
-0.0110314
-0.0102289
-0.0108799
-0.0100023
-0.00961722
-0.00999682
-0.0107099
-0.00985057
-0.010583
-0.00928398
-0.00911224
-0.00959706
-0.00900504
-0.00925601
-0.00832414
-0.00850418
-0.00828874
-0.00752445
-0.00723582
-0.00979818
-0.0104993
-0.00980459
-0.0104243
-0.00911786
-0.00923361
-0.00983366
-0.0103677
-0.00986721
-0.0103183
-0.00936331
-0.00948416
-0.00839663
-0.0086783
-0.00755419
-0.00812932
-0.0089354
-0.0091561
-0.00856956
-0.00891792
-0.0089944
-0.00751892
-0.00906369
-0.0067441
-0.0062072
-0.00580775
-0.00457258
-0.00398156
-0.0100294
-0.00621943
-0.0121776
-0.00621431
-0.00212704
-0.00116232
0.00117383
0.00284575
-0.00656339
-0.00766567
-0.0055371
-0.00746674
-0.00833303
-0.00879644
-0.00837791
-0.00892904
-0.00473188
-0.00839858
-0.00382372
-0.00970144
-0.00921356
-0.00938512
-0.0100778
-0.00972087
-0.00990156
-0.0102788
-0.009933
-0.0102526
-0.00959075
-0.00967482
-0.00996173
-0.0102368
-0.00998732
-0.0102314
-0.00974227
-0.00979457
-0.00933752
-0.00947204
-0.00917547
-0.00935175
-0.00957476
-0.00965053
-0.00947789
-0.00956701
-0.010007
-0.010232
-0.0100165
-0.0102325
-0.00983165
-0.00985272
-0.0100106
-0.0102259
-0.00998428
-0.0101993
-0.00985486
-0.00983595
-0.00970364
-0.00973721
-0.00962997
-0.0096736
-0.0097503
-0.0097432
-0.0096975
-0.00970338
-0.00909431
-0.0092915
-0.00918543
-0.00935105
-0.00942652
-0.00952289
-0.00945105
-0.00953282
-0.00934289
-0.00940874
-0.00946538
-0.00951293
-0.00944574
-0.00952632
-0.00947528
-0.00955573
-0.00959518
-0.00965052
-0.00960517
-0.00966937
-0.00968726
-0.0097071
-0.00971853
-0.00975173
-0.00961677
-0.00970462
-0.00966123
-0.00977162
-0.00977666
-0.00982928
-0.00986829
-0.00994308
-0.0135259
0.00926159
0.0177954
0.0627861
0.0322326
0.038685
0.0818577
0.0880655
0.0651971
0.108909
0.0648968
0.108745
0.110158
0.111861
0.11244
0.115998
0.025246
-0.00167304
0.0776833
0.0357103
-0.0145136
-0.0113996
-0.00579423
-0.0126538
0.110102
0.0825823
0.115023
0.0928857
0.0215478
-0.0121983
0.0304706
-0.0111829
0.0254246
0.0739069
-0.000458796
0.026021
0.0964333
0.105327
0.050657
0.058456
-0.00197226
0.00474386
-0.000572692
0.00406318
0.0124438
0.0132823
0.0081641
0.00718845
0.0999784
0.0586696
0.0453174
0.0102975
0.0064662
-0.0105595
-0.0113806
-0.00986359
0.000918277
-0.00883044
-3.55984e-05
-0.00530847
-0.00896703
-0.00838823
-0.00672105
-0.00764331
-0.00993419
-0.00974448
-0.00999092
-0.0097065
-0.00950575
-0.00957755
-0.00942413
-0.0095644
-0.0102077
-0.009641
-0.00987468
-0.00934006
-0.00945945
-0.00961119
-0.00934165
-0.00957282
-0.00970406
-0.00984972
-0.00974393
-0.00994137
-0.00998465
-0.010096
-0.0101292
-0.0102954
-0.00982099
-0.0100648
-0.00985336
-0.0101734
-0.0103146
-0.010558
-0.0105119
-0.0108673
-0.00900949
-0.00899362
-0.00881841
-0.0089964
-0.0090995
-0.00947784
-0.00909247
-0.00948279
-0.00852762
-0.00893368
-0.00829661
-0.00880504
-0.00916952
-0.00955395
-0.00915121
-0.00954201
-0.00985819
-0.0102701
-0.00989612
-0.0103632
-0.0107122
-0.0112043
-0.0108948
-0.0115325
-0.00996486
-0.010444
-0.0099491
-0.0104169
-0.0110223
-0.0117736
-0.0109887
-0.0117759
-0.0113409
-0.0122656
-0.0136965
-0.0107267
-0.0112131
-0.0118286
-0.0131082
0.00643849
-0.000125858
0.0290437
-0.0103259
-0.0104964
-0.0105723
-0.0100854
-0.00998207
-0.00922532
0.0117211
0.0401716
0.0173452
0.0447769
0.0364937
0.046145
0.0465988
0.0460351
0.0402597
0.0356441
0.0436998
0.0420384
0.0466332
0.046828
0.0466372
0.0473266
0.0464352
0.046123
0.0478291
0.0480876
-0.0101408
-0.00993583
-0.00903476
-0.0105163
-0.0104189
-0.010108
0.0175165
0.0448505
0.0124659
0.0407288
-0.0110791
-0.0112327
-0.0113354
-0.0118566
-0.0125
-0.0135522
0.00165701
0.0309578
-0.012072
0.0102295
0.0467641
0.047577
0.0470571
0.0475767
0.0481908
0.0484892
0.0475349
0.0473413
0.0475522
0.0472007
0.040218
0.0476762
0.0455399
0.0440991
0.0424765
0.0383082
0.0360208
0.0406511
0.0423403
0.0442062
0.0461076
0.0385352
0.0463433
0.047135
0.0462577
0.0467501
0.0481963
0.0481637
0.0473125
0.0475625
0.0479988
0.0479537
0.0120924
-0.0062303
0.0334579
0.00707213
-0.00636798
-0.00327873
-0.00475127
-0.00243134
0.0441114
0.018494
0.0477531
0.0243158
-0.00403171
-0.00314197
-0.00238729
-0.00470436
0.0485314
0.0483696
0.0472306
0.0472454
0.0480593
0.0480027
0.0474114
0.0478358
0.0438245
0.0445474
0.0377763
0.0403132
0.0462137
0.0480399
0.0454918
0.0436887
0.0475794
0.024227
0.0454507
0.0177711
-0.00339682
-0.00713803
-0.00966342
-0.0123026
0.0369927
0.00558762
0.016817
-0.0109888
-0.0144165
-0.0157421
-0.0167483
-0.0167096
-0.0123905
-0.0133303
-0.015069
-0.0123884
-0.0131666
-0.0145303
-0.0183566
-0.0133463
-0.0166134
-0.0199216
-0.0121009
-0.01263
-0.0134474
-0.0116915
-0.0120012
-0.0124229
-0.0144384
-0.0157165
-0.0128148
-0.0131536
0.00634845
0.0227727
-0.0195728
-0.0104344
0.0260359
0.0247715
0.000738169
0.00719263
-0.0168487
-0.0154121
-0.0131361
-0.0116394
-0.00874916
-0.00114959
-0.00763991
-0.00337976
-0.0112591
-0.0114105
-0.0115814
-0.0108485
-0.0108852
-0.0108951
-0.0116486
-0.0115617
-0.010791
-0.0105398
-0.0104899
-0.0104641
-0.0104
-0.0101993
-0.0101532
-0.0100648
-0.0102433
-0.00998179
-0.00990718
-0.0096809
-0.0111207
-0.00988847
-0.0100514
-0.00917203
-0.00768616
-0.00563477
-0.0079204
-0.00687363
-0.00957702
-0.00898248
-0.0093749
-0.00899068
-0.00826896
-0.00775955
-0.0085971
-0.00836845
0.0240709
0.0240484
0.00699027
0.00113718
0.0227656
0.0107438
-0.00808726
-0.0187721
-0.000923255
-0.00740094
-0.00330812
-0.00722649
-0.0142054
-0.017531
-0.0114077
-0.0138713
-0.010585
-0.0200863
-0.0217051
-0.0186014
-0.0180942
-0.0172478
-0.0170047
-0.0162307
-0.0171695
-0.0161244
-0.0144069
-0.0143308
-0.0155823
-0.015211
-0.0143072
-0.0142044
-0.00569558
-0.00785955
-0.00697023
-0.00824862
-0.0102813
-0.0120031
-0.0097421
-0.0109504
-0.00788726
-0.00868286
-0.00851153
-0.00903564
-0.00965539
-0.0105
-0.0096864
-0.0102814
-0.0127858
-0.0130627
-0.0117012
-0.012092
-0.0132411
-0.0132661
-0.0123393
-0.012422
-0.0110995
-0.0114493
-0.0107346
-0.0110034
-0.0116568
-0.0117168
-0.0111332
-0.0111284
0.000180948
0.00366559
0.00080595
0.00394435
0.00759136
0.00794216
0.00965523
0.0115657
-0.000158899
0.00224571
-0.0024304
0.00468828
0.00965549
0.0106008
0.0437373
0.0744359
0.0019939
-0.00311396
0.00330806
-0.00357264
-0.00541342
-0.00713832
-0.00586556
-0.00758546
0.00012591
-0.00494032
0.0303335
-0.0124157
-0.00592675
-0.00727148
-0.0118739
-0.0104049
-0.00633169
0.027302
-0.0139251
0.0519132
0.100984
0.145174
0.137246
0.161212
-0.0180182
0.0379447
-0.0178301
-0.00146892
0.132454
0.174951
0.050357
0.0880833
0.0966247
0.0151647
0.139834
0.0493609
-0.0111341
-0.00965646
-0.0116229
-0.00994804
0.131235
0.0307009
0.0511232
-0.00313075
-0.0183721
-0.0145509
-0.0164963
-0.0143051
-0.00815067
-0.00877406
-0.00847133
-0.00895028
-0.00918871
-0.00955679
-0.00930349
-0.00959826
-0.00827927
-0.00884875
-0.0100608
-0.00976318
-0.00930105
-0.00961588
-0.00980611
-0.00990045
-0.00991106
-0.010295
-0.00986833
-0.0101345
-0.0107377
-0.0113409
-0.0103975
-0.0107267
-0.00985653
-0.0100484
-0.0100106
-0.0101002
-0.0101912
-0.0103259
-0.0101301
-0.0100854
-0.0100547
-0.00984942
-0.0102763
-0.0101479
-0.00995818
-0.0100764
-0.0102508
-0.0103703
-0.0125835
-0.0115794
-0.0126519
-0.0119046
-0.011085
-0.0109246
-0.0114256
-0.011256
-0.010184
-0.0102576
-0.0104697
-0.010546
-0.0102514
-0.0101408
-0.0105581
-0.0105163
-0.0108922
-0.0109302
-0.0112236
-0.0113047
-0.0109816
-0.0110791
-0.0114903
-0.0118566
-0.017638
-0.0194185
-0.0162004
-0.0170149
-0.0156935
-0.00991686
-0.0173984
-0.0178247
-0.015189
-0.0155311
-0.0142106
-0.0143413
-0.0154973
-0.0156155
-0.0142314
-0.0142145
-0.0150191
-0.018195
-0.0181882
-0.0162027
-0.015416
-0.0141839
-0.0144472
-0.0135606
-0.0158376
-0.0148056
-0.0142024
-0.0135676
-0.0137917
-0.0130698
-0.0129793
-0.012471
-0.0132794
-0.0132981
-0.0124338
-0.0124002
-0.01317
-0.0131138
-0.0122762
-0.0121836
-0.0116885
-0.0116025
-0.0110314
-0.0108799
-0.0114655
-0.0113529
-0.0107099
-0.010583
-0.0130446
-0.0126472
-0.0120817
-0.0118302
-0.0122695
-0.0119072
-0.0115906
-0.0113544
-0.0112498
-0.0110939
-0.0104993
-0.0104243
-0.0109513
-0.0108148
-0.0103677
-0.0103183
-0.0128297
-0.0121482
-0.0126418
-0.0121043
-0.0116806
-0.0114886
-0.0117226
-0.0115505
-0.0124004
-0.0119601
-0.0120136
-0.0116885
-0.0116436
-0.0114856
-0.0114491
-0.0113188
-0.0114506
-0.0115606
-0.0115168
-0.0116224
-0.0118424
-0.0123905
-0.0118924
-0.0123884
-0.011446
-0.0115234
-0.0112774
-0.0113222
-0.0117327
-0.0121009
-0.0114583
-0.0116915
-0.011588
-0.0113519
-0.0111462
-0.0109888
-0.0111767
-0.0110753
-0.0108715
-0.0108005
-0.0106968
-0.010609
-0.0102788
-0.0102526
-0.0105454
-0.0105076
-0.0102368
-0.0102314
-0.0110367
-0.0110561
-0.0107692
-0.0107714
-0.0111318
-0.0112591
-0.0108012
-0.0108485
-0.0104905
-0.0104873
-0.010232
-0.0102325
-0.0104904
-0.0104899
-0.0102259
-0.0102091

SCALARS U float
LOOKUP_TABLE default
0.0280573
0.0294548
0.0284022
0.030176
0.0307018
0.0320214
0.0278856
0.0289117
0.0297409
0.0316364
0.0336345
0.0319963
0.0346425
0.0302328
0.0301988
0.0278059
0.0285754
0.0291311
0.0278385
0.0284601
0.0288661
0.0293492
0.0290858
0.0289397
0.0285575
0.0314975
0.0346044
0.0298874
0.0330355
0.0294533
0.0278655
0.0269538
0.0294307
0.0229506
0.0241122
0.0253644
0.0221521
0.0282117
0.0266554
0.0276146
0.0260647
0.0244056
0.0216261
0.0239191
0.0213211
0.0279843
0.0285636
0.0289341
0.0282246
0.0288761
0.0293302
0.0289756
0.0285639
0.0294537
0.0291028
0.0285425
0.0293906
0.0300609
0.0288929
0.0300837
0.0311302
0.0303997
0.0302214
0.0318568
0.0320136
0.027593
0.0260178
0.0281452
0.0265156
0.0238495
0.0212276
0.0242025
0.021359
0.029338
0.0276324
0.0313184
0.0295504
0.0250359
0.0217358
0.0265077
0.0224293
0.0185081
0.0181087
0.0144157
0.0127239
0.018633
0.0153025
0.0113103
0.00898534
0.00939176
0.00711683
0.0125784
0.010635
0.0186035
0.0156786
0.0185019
0.0157273
0.0131433
0.0111431
0.0132231
0.0111102
0.00858264
0.00683274
0.00863658
0.00764347
0.00948226
0.00901366
0.00929705
0.00909734
0.0103224
0.01079
0.00910079
0.00962792
0.00971521
0.00883082
0.00941301
0.00813724
0.00844005
0.00852602
0.00726521
0.00684769
0.0183759
0.0155479
0.0182542
0.015194
0.0129457
0.0106653
0.0123998
0.00994296
0.018114
0.0146127
0.0179321
0.0137618
0.0115368
0.00891816
0.0104204
0.00788876
0.00868265
0.0069988
0.0076874
0.00555116
0.00556405
0.00442391
0.00328103
0.000643646
0.00641864
0.00374034
0.00545455
0.00213717
-5.90012e-05
-0.00648097
-0.00524941
-0.0211146
0.0292512
0.0309384
0.0325517
0.0295471
0.0318852
0.0342874
0.0338994
0.0346388
0.0365767
0.0382916
0.0297096
0.032819
0.0362634
0.0296167
0.0334977
0.0382219
0.039941
0.0432549
0.0438785
0.0497649
0.0343336
0.0325576
0.0387786
0.0372239
0.0288331
0.0234665
0.0325333
0.0250326
0.045243
0.0443554
0.0544656
0.0551776
0.0382823
0.0272805
0.0473241
0.0305139
0.0289431
0.0334534
0.039589
0.0270967
0.0317966
0.038935
0.0477793
0.0572697
0.0491902
0.0614004
0.0233259
0.0271668
0.0335627
0.0171799
0.0185113
0.021223
0.0429565
0.0533288
0.0248062
0.0274559
0.0657505
0.0686426
0.071709
0.0736879
0.0587851
0.0342744
0.0609159
0.0339033
0.0592163
0.0550568
0.0248334
0.0174242
0.042141
0.0256997
0.0132132
0.0151909
0.0174988
0.0122243
0.0165686
0.0095433
0.00855198
0.00645145
0.00577299
0.00541164
0.0145663
0.00447784
0.0102736
-0.00544711
0.00041254
0.0025889
-0.0112155
-0.0079325
0.00477085
0.00203539
0.00764876
0.012498
-0.00679988
-0.0269827
0.0196891
0.029344
0.0107822
0.0265457
0.00215486
0.0191973
0.057998
0.109799
0.0487962
0.0949694
0.00336356
-0.020306
0.000471523
-0.027559
-0.0286793
-0.0245643
-0.0398197
-0.0358459
0.00741789
-0.0107282
0.0198491
0.02286
-0.0231682
-0.0242353
0.0198437
0.0129713
-0.0145581
-0.00277976
-0.0251748
-0.0162222
0.00671353
0.0123209
-0.0161563
-0.0326684
-0.0183411
-0.0128326
0.00769817
0.00498886
-0.012966
-0.0258987
0.00198728
-0.00463643
0.0115507
0.0124418
0.0128686
0.0138643
0.0105597
0.0118779
0.0141725
0.0149073
0.0153663
0.0155544
0.0135279
0.0153032
0.00920167
0.0106076
0.00719095
0.00876213
0.0127787
0.0153226
0.0118063
0.0155614
0.0164208
0.0159664
0.0173887
0.0163977
0.016983
0.0184588
0.0182685
0.016963
0.0191043
0.0176778
0.0196144
0.0205254
0.0177525
0.0197886
0.0190232
0.0216803
0.0211841
0.0220834
0.023201
0.0239059
0.00412817
0.00587925
-0.00144726
4.55892e-05
0.0104676
0.0163815
0.00760275
0.0183722
-0.0141226
-0.0150755
-0.0399597
-0.0424845
-0.00160063
0.0212411
-0.016989
0.0247168
0.0214514
0.0246917
0.0269927
0.0306676
0.0259655
0.0261198
0.0303852
0.0289306
0.0398135
0.0447192
0.0607131
0.0720699
0.0393982
0.0332262
0.0595534
0.0420879
0.0199464
0.0185363
0.0208282
0.0195249
0.0213124
0.0220558
0.0217864
0.0206379
0.0228403
0.0218783
0.0228382
0.0236961
0.0227308
0.0232668
0.0242548
0.0244694
0.0238294
0.024473
0.0247484
0.0251574
0.0240046
0.0232577
0.0252763
0.0247849
0.024649
0.0256873
0.0266421
0.0264662
0.0280573
0.0281543
0.0267852
0.0278856
0.0252196
0.0260536
0.0257108
0.026381
0.0269378
0.0278059
0.0271158
0.0278385
0.0259314
0.0256746
0.0276657
0.0267212
0.0255854
0.0257336
0.0261843
0.0260795
0.0295483
0.0275664
0.0317898
0.0276857
0.0264815
0.0261409
0.0259665
0.0255753
0.026109
0.026662
0.0263291
0.0268417
0.0273174
0.0279843
0.0275096
0.0282246
0.0263278
0.0268868
0.0259008
0.026678
0.0276678
0.0285425
0.0277195
0.0288929
-0.0443478
-0.0367606