# vtk DataFile Version 2.0
Gerris simulation version 1.3.2 (131206-155120)
ASCII
DATASET UNSTRUCTURED_GRID

POINTS 1089 float
-0.5 0.46875 0
-0.46875 0.46875 0
-0.5 0.5 0
-0.46875 0.5 0
-0.4375 0.46875 0
-0.4375 0.5 0
-0.5 0.4375 0
-0.46875 0.4375 0
-0.4375 0.4375 0
-0.40625 0.46875 0
-0.40625 0.5 0
-0.375 0.46875 0
-0.375 0.5 0
-0.40625 0.4375 0
-0.375 0.4375 0
-0.5 0.40625 0
-0.46875 0.40625 0
-0.4375 0.40625 0
-0.5 0.375 0
-0.46875 0.375 0
-0.4375 0.375 0
-0.40625 0.40625 0
-0.375 0.40625 0
-0.40625 0.375 0
-0.375 0.375 0
-0.34375 0.46875 0
-0.34375 0.5 0
-0.3125 0.46875 0
-0.3125 0.5 0
-0.34375 0.4375 0
-0.3125 0.4375 0
-0.28125 0.46875 0
-0.28125 0.5 0
-0.25 0.46875 0
-0.25 0.5 0
-0.28125 0.4375 0
-0.25 0.4375 0
-0.34375 0.40625 0
-0.3125 0.40625 0
-0.34375 0.375 0
-0.3125 0.375 0
-0.28125 0.40625 0
-0.25 0.40625 0
-0.28125 0.375 0
-0.25 0.375 0
-0.5 0.34375 0
-0.46875 0.34375 0
-0.4375 0.34375 0
-0.5 0.3125 0
-0.46875 0.3125 0
-0.4375 0.3125 0
-0.40625 0.34375 0
-0.375 0.34375 0
-0.40625 0.3125 0
-0.375 0.3125 0
-0.5 0.28125 0
-0.46875 0.28125 0
-0.4375 0.28125 0
-0.5 0.25 0
-0.46875 0.25 0
-0.4375 0.25 0
-0.40625 0.28125 0
-0.375 0.28125 0
-0.40625 0.25 0
-0.375 0.25 0
-0.34375 0.34375 0
-0.3125 0.34375 0
-0.34375 0.3125 0
-0.3125 0.3125 0
-0.28125 0.34375 0
-0.25 0.34375 0
-0.28125 0.3125 0
-0.25 0.3125 0
-0.34375 0.28125 0
-0.3125 0.28125 0
-0.34375 0.25 0
-0.3125 0.25 0
-0.28125 0.28125 0
-0.25 0.28125 0
-0.28125 0.25 0
-0.25 0.25 0
-0.21875 0.46875 0
-0.21875 0.5 0
-0.1875 0.46875 0
-0.1875 0.5 0
-0.21875 0.4375 0
-0.1875 0.4375 0
-0.15625 0.46875 0
-0.15625 0.5 0
-0.125 0.46875 0
-0.125 0.5 0
-0.15625 0.4375 0
-0.125 0.4375 0
-0.21875 0.40625 0
-0.1875 0.40625 0
-0.21875 0.375 0
-0.1875 0.375 0
-0.15625 0.40625 0
-0.125 0.40625 0
-0.15625 0.375 0
-0.125 0.375 0
-0.09375 0.46875 0
-0.09375 0.5 0
-0.0625 0.46875 0
-0.0625 0.5 0
-0.09375 0.4375 0
-0.0625 0.4375 0
-0.03125 0.46875 0
-0.03125 0.5 0
0 0.46875 0
0 0.5 0
-0.03125 0.4375 0
0 0.4375 0
-0.09375 0.40625 0
-0.0625 0.40625 0
-0.09375 0.375 0
-0.0625 0.375 0
-0.03125 0.40625 0
0 0.40625 0
-0.03125 0.375 0
0 0.375 0
-0.21875 0.34375 0
-0.1875 0.34375 0
-0.21875 0.3125 0
-0.1875 0.3125 0
-0.15625 0.34375 0
-0.125 0.34375 0
-0.15625 0.3125 0
-0.125 0.3125 0
-0.21875 0.28125 0
-0.1875 0.28125 0
-0.21875 0.25 0
-0.1875 0.25 0
-0.15625 0.28125 0
-0.125 0.28125 0
-0.15625 0.25 0
-0.125 0.25 0
-0.09375 0.34375 0
-0.0625 0.34375 0
-0.09375 0.3125 0
-0.0625 0.3125 0
-0.03125 0.34375 0
0 0.34375 0
-0.03125 0.3125 0
0 0.3125 0
-0.09375 0.28125 0
-0.0625 0.28125 0
-0.09375 0.25 0
-0.0625 0.25 0
-0.03125 0.28125 0
0 0.28125 0
-0.03125 0.25 0
0 0.25 0
-0.5 0.21875 0
-0.46875 0.21875 0
-0.4375 0.21875 0
-0.5 0.1875 0
-0.46875 0.1875 0
-0.4375 0.1875 0
-0.40625 0.21875 0
-0.375 0.21875 0
-0.40625 0.1875 0
-0.375 0.1875 0
-0.5 0.15625 0
-0.46875 0.15625 0
-0.4375 0.15625 0
-0.5 0.125 0
-0.46875 0.125 0
-0.4375 0.125 0
-0.40625 0.15625 0
-0.375 0.15625 0
-0.40625 0.125 0
-0.375 0.125 0
-0.34375 0.21875 0
-0.3125 0.21875 0
-0.34375 0.1875 0
-0.3125 0.1875 0
-0.28125 0.21875 0
-0.25 0.21875 0
-0.28125 0.1875 0
-0.25 0.1875 0
-0.34375 0.15625 0
-0.3125 0.15625 0
-0.34375 0.125 0
-0.3125 0.125 0
-0.28125 0.15625 0
-0.25 0.15625 0
-0.28125 0.125 0
-0.25 0.125 0
-0.5 0.09375 0
-0.46875 0.09375 0
-0.4375 0.09375 0
-0.5 0.0625 0
-0.46875 0.0625 0
-0.4375 0.0625 0
-0.40625 0.09375 0
-0.375 0.09375 0
-0.40625 0.0625 0
-0.375 0.0625 0
-0.5 0.03125 0
-0.46875 0.03125 0
-0.4375 0.03125 0
-0.5 0 0
-0.46875 0 0
-0.4375 0 0
-0.40625 0.03125 0
-0.375 0.03125 0
-0.40625 0 0
-0.375 0 0
-0.34375 0.09375 0
-0.3125 0.09375 0
-0.34375 0.0625 0
-0.3125 0.0625 0
-0.28125 0.09375 0
-0.25 0.09375 0
-0.28125 0.0625 0
-0.25 0.0625 0
-0.34375 0.03125 0
-0.3125 0.03125 0
-0.34375 0 0
-0.3125 0 0
-0.28125 0.03125 0
-0.25 0.03125 0
-0.28125 0 0
-0.25 0 0
-0.21875 0.21875 0
-0.1875 0.21875 0
-0.21875 0.1875 0
-0.1875 0.1875 0
-0.15625 0.21875 0
-0.125 0.21875 0
-0.15625 0.1875 0
-0.125 0.1875 0
-0.21875 0.15625 0
-0.1875 0.15625 0
-0.21875 0.125 0
-0.1875 0.125 0
-0.15625 0.15625 0
-0.125 0.15625 0
-0.15625 0.125 0
-0.125 0.125 0
-0.09375 0.21875 0
-0.0625 0.21875 0
-0.09375 0.1875 0
-0.0625 0.1875 0
-0.03125 0.21875 0
0 0.21875 0
-0.03125 0.1875 0
0 0.1875 0
-0.09375 0.15625 0
-0.0625 0.15625 0
-0.09375 0.125 0
-0.0625 0.125 0
-0.03125 0.15625 0
0 0.15625 0
-0.03125 0.125 0
0 0.125 0
-0.21875 0.09375 0
-0.1875 0.09375 0
-0.21875 0.0625 0
-0.1875 0.0625 0
-0.15625 0.09375 0
-0.125 0.09375 0
-0.15625 0.0625 0
-0.125 0.0625 0
-0.21875 0.03125 0
-0.1875 0.03125 0
-0.21875 0 0
-0.1875 0 0
-0.15625 0.03125 0
-0.125 0.03125 0
-0.15625 0 0
-0.125 0 0
-0.09375 0.09375 0
-0.0625 0.09375 0
-0.09375 0.0625 0
-0.0625 0.0625 0
-0.03125 0.09375 0
0 0.09375 0
-0.03125 0.0625 0
0 0.0625 0
-0.09375 0.03125 0
-0.0625 0.03125 0
-0.09375 0 0
-0.0625 0 0
-0.03125 0.03125 0
0 0.03125 0
-0.03125 0 0
0 0 0
0.03125 0.46875 0
0.03125 0.5 0
0.0625 0.46875 0
0.0625 0.5 0
0.03125 0.4375 0
0.0625 0.4375 0
0.09375 0.46875 0
0.09375 0.5 0
0.125 0.46875 0
0.125 0.5 0
0.09375 0.4375 0
0.125 0.4375 0
0.03125 0.40625 0
0.0625 0.40625 0
0.03125 0.375 0
0.0625 0.375 0
0.09375 0.40625 0
0.125 0.40625 0
0.09375 0.375 0
0.125 0.375 0
0.15625 0.46875 0
0.15625 0.5 0
0.1875 0.46875 0
0.1875 0.5 0
0.15625 0.4375 0
0.1875 0.4375 0
0.21875 0.46875 0
0.21875 0.5 0
0.25 0.46875 0
0.25 0.5 0
0.21875 0.4375 0
0.25 0.4375 0
0.15625 0.40625 0
0.1875 0.40625 0
0.15625 0.375 0
0.1875 0.375 0
0.21875 0.40625 0
0.25 0.40625 0
0.21875 0.375 0
0.25 0.375 0
0.03125 0.34375 0
0.0625 0.34375 0
0.03125 0.3125 0
0.0625 0.3125 0
0.09375 0.34375 0
0.125 0.34375 0
0.09375 0.3125 0
0.125 0.3125 0
0.03125 0.28125 0
0.0625 0.28125 0
0.03125 0.25 0
0.0625 0.25 0
0.09375 0.28125 0
0.125 0.28125 0
0.09375 0.25 0
0.125 0.25 0
0.15625 0.34375 0
0.1875 0.34375 0
0.15625 0.3125 0
0.1875 0.3125 0
0.21875 0.34375 0
0.25 0.34375 0
0.21875 0.3125 0
0.25 0.3125 0
0.15625 0.28125 0
0.1875 0.28125 0
0.15625 0.25 0
0.1875 0.25 0
0.21875 0.28125 0
0.25 0.28125 0
0.21875 0.25 0
0.25 0.25 0
0.28125 0.46875 0
0.28125 0.5 0
0.3125 0.46875 0
0.3125 0.5 0
0.28125 0.4375 0
0.3125 0.4375 0
0.34375 0.46875 0
0.34375 0.5 0
0.375 0.46875 0
0.375 0.5 0
0.34375 0.4375 0
0.375 0.4375 0
0.28125 0.40625 0
0.3125 0.40625 0
0.28125 0.375 0
0.3125 0.375 0
0.34375 0.40625 0
0.375 0.40625 0
0.34375 0.375 0
0.375 0.375 0
0.40625 0.46875 0
0.40625 0.5 0
0.4375 0.46875 0
0.4375 0.5 0
0.40625 0.4375 0
0.4375 0.4375 0
0.46875 0.46875 0
0.46875 0.5 0
0.5 0.46875 0
0.5 0.5 0
0.46875 0.4375 0
0.5 0.4375 0
0.40625 0.40625 0
0.4375 0.40625 0
0.40625 0.375 0
0.4375 0.375 0
0.46875 0.40625 0
0.5 0.40625 0
0.46875 0.375 0
0.5 0.375 0
0.28125 0.34375 0
0.3125 0.34375 0
0.28125 0.3125 0
0.3125 0.3125 0
0.34375 0.34375 0
0.375 0.34375 0
0.34375 0.3125 0
0.375 0.3125 0
0.28125 0.28125 0
0.3125 0.28125 0
0.28125 0.25 0
0.3125 0.25 0
0.34375 0.28125 0
0.375 0.28125 0
0.34375 0.25 0
0.375 0.25 0
0.40625 0.34375 0
0.4375 0.34375 0
0.40625 0.3125 0
0.4375 0.3125 0
0.46875 0.34375 0
0.5 0.34375 0
0.46875 0.3125 0
0.5 0.3125 0
0.40625 0.28125 0
0.4375 0.28125 0
0.40625 0.25 0
0.4375 0.25 0
0.46875 0.28125 0
0.5 0.28125 0
0.46875 0.25 0
0.5 0.25 0
0.03125 0.21875 0
0.0625 0.21875 0
0.03125 0.1875 0
0.0625 0.1875 0
0.09375 0.21875 0
0.125 0.21875 0
0.09375 0.1875 0
0.125 0.1875 0
0.03125 0.15625 0
0.0625 0.15625 0
0.03125 0.125 0
0.0625 0.125 0
0.09375 0.15625 0
0.125 0.15625 0
0.09375 0.125 0
0.125 0.125 0
0.15625 0.21875 0
0.1875 0.21875 0
0.15625 0.1875 0
0.1875 0.1875 0
0.21875 0.21875 0
0.25 0.21875 0
0.21875 0.1875 0
0.25 0.1875 0
0.15625 0.15625 0
0.1875 0.15625 0
0.15625 0.125 0
0.1875 0.125 0
0.21875 0.15625 0
0.25 0.15625 0
0.21875 0.125 0
0.25 0.125 0
0.03125 0.09375 0
0.0625 0.09375 0
0.03125 0.0625 0
0.0625 0.0625 0
0.09375 0.09375 0
0.125 0.09375 0
0.09375 0.0625 0
0.125 0.0625 0
0.03125 0.03125 0
0.0625 0.03125 0
0.03125 0 0
0.0625 0 0
0.09375 0.03125 0
0.125 0.03125 0
0.09375 0 0
0.125 0 0
0.15625 0.09375 0
0.1875 0.09375 0
0.15625 0.0625 0
0.1875 0.0625 0
0.21875 0.09375 0
0.25 0.09375 0
0.21875 0.0625 0
0.25 0.0625 0
0.15625 0.03125 0
0.1875 0.03125 0
0.15625 0 0
0.1875 0 0
0.21875 0.03125 0
0.25 0.03125 0
0.21875 0 0
0.25 0 0
0.28125 0.21875 0
0.3125 0.21875 0
0.28125 0.1875 0
0.3125 0.1875 0
0.34375 0.21875 0
0.375 0.21875 0
0.34375 0.1875 0
0.375 0.1875 0
0.28125 0.15625 0
0.3125 0.15625 0
0.28125 0.125 0
0.3125 0.125 0
0.34375 0.15625 0
0.375 0.15625 0
0.34375 0.125 0
0.375 0.125 0
0.40625 0.21875 0
0.4375 0.21875 0
0.40625 0.1875 0
0.4375 0.1875 0
0.46875 0.21875 0
0.5 0.21875 0
0.46875 0.1875 0
0.5 0.1875 0
0.40625 0.15625 0
0.4375 0.15625 0
0.40625 0.125 0
0.4375 0.125 0
0.46875 0.15625 0
0.5 0.15625 0
0.46875 0.125 0
0.5 0.125 0
0.28125 0.09375 0
0.3125 0.09375 0
0.28125 0.0625 0
0.3125 0.0625 0
0.34375 0.09375 0
0.375 0.09375 0
0.34375 0.0625 0
0.375 0.0625 0
0.28125 0.03125 0
0.3125 0.03125 0
0.28125 0 0
0.3125 0 0
0.34375 0.03125 0
0.375 0.03125 0
0.34375 0 0
0.375 0 0
0.40625 0.09375 0
0.4375 0.09375 0
0.40625 0.0625 0
0.4375 0.0625 0
0.46875 0.09375 0
0.5 0.09375 0
0.46875 0.0625 0
0.5 0.0625 0
0.40625 0.03125 0
0.4375 0.03125 0
0.40625 0 0
0.4375 0 0
0.46875 0.03125 0
0.5 0.03125 0
0.46875 0 0
0.5 0 0
-0.5 -0.03125 0
-0.46875 -0.03125 0
-0.4375 -0.03125 0
-0.5 -0.0625 0
-0.46875 -0.0625 0
-0.4375 -0.0625 0
-0.40625 -0.03125 0
-0.375 -0.03125 0
-0.40625 -0.0625 0
-0.375 -0.0625 0
-0.5 -0.09375 0
-0.46875 -0.09375 0
-0.4375 -0.09375 0
-0.5 -0.125 0
-0.46875 -0.125 0
-0.4375 -0.125 0
-0.40625 -0.09375 0
-0.375 -0.09375 0
-0.40625 -0.125 0
-0.375 -0.125 0
-0.34375 -0.03125 0
-0.3125 -0.03125 0
-0.34375 -0.0625 0
-0.3125 -0.0625 0
-0.28125 -0.03125 0
-0.25 -0.03125 0
-0.28125 -0.0625 0
-0.25 -0.0625 0
-0.34375 -0.09375 0
-0.3125 -0.09375 0
-0.34375 -0.125 0
-0.3125 -0.125 0
-0.28125 -0.09375 0
-0.25 -0.09375 0
-0.28125 -0.125 0
-0.25 -0.125 0
-0.5 -0.15625 0
-0.46875 -0.15625 0
-0.4375 -0.15625 0
-0.5 -0.1875 0
-0.46875 -0.1875 0
-0.4375 -0.1875 0
-0.40625 -0.15625 0
-0.375 -0.15625 0
[...]
POINT_DATA 1089
SCALARS T float
LOOKUP_TABLE default
0
0
0
0
0
0
0
0
0
0
0
0
0
0
0
0
0
0
0
0
0
0
0
0
0
0
0
0
0
0
0
0
0
0
0
0
0
0
0
0
0
0
0
0
0
0
0
0
0
0
0
0
0
0
0
0
0
0
0
0
0
0
0
0
0
0
0
0
0
0
0
0
0
0
0
0
0
0
0
0
0
0
0
0
0
0
0
0
0
0
0
0
0
0
0
0
0
0
0
0
0
0
0
0
0
0
0
0
0
0
0
0
0
0
0
0
0
0
0
0
0
0
0
0
0
0
0
0
0
0
0
0
0
0
0
0
0
0
0
0
0
0
0
0
0
0
0
0
0
0
0
0
0
0
0
0
0
0
0
0
0
0
0
0
0
0
0
0
0
0
0
0
0
0
0
0
0
0
0
0
0
0
0
0
0
0
0
0
0
0
0
0
0
0
0
0
0
0
0
0
0
0
0
0
0
0
0.0089227
0
0.0748807
0
0.00553532
0.0561176
0.288288
0.073167
0.147687
0.549802
0.647687
0.288156
0.755869
0.547997
0.973116
0.976635
1
1
1
0
0
0
0
0
0
0
0
0
0
0
0
0
0
0
0
0
0
0
0
0
0
0
0.000344975
0
0
0
0
0
0.0667724
0
0.154725
0.106513
0.0264577
0.602136
0.389351
0
0
0.11727
1.43189e-08
0.995623
0.862893
1
1
0.43825
0.0709799
0.733655
0.233655
0
0
0
0
0
0.0994281
0
0.0111303
0
0
0
0
0
0
0
0
0
0
0
0
0
0
0
0
0
0
0
0
0
0
0
0
0
0
0
0
0
0
0
0
0
0
0
0
0
0
0
0
0
0
0
0
0
0
0
0
0
0
0
0
0
0
0
0
0
0
0
3.86479e-06
0
0
0.043329
0.0442283
0
0
0
0
0
0
0
0
0
0
0.000903081
0
0
0
0
0
0
0
0
0
0
0
0
0
0
0
0
0
0
0
0
0
0
0
0
0
0
0
0
0
0
0
0
0
0
0
0
0
0
0
0
0
0
0
0
0
0
0
0
0
0
0
0
0
0
0
0
0
0
0
0
0
0
0
0
0
0
0
0
0
0
0
0
0
0
0
0
0
0.00066532
0.129633
0.132
0.510619
0.422293
0.461055
0.878964
0.916827
0.447762
0.88099
0.654725
1
1
1
1
1
0.176222
0.00849167
0.58148
0.164653
0
0
0
0
0.905744
0.427722
0.999182
0.5427
0.0219788
0
0.0435178
0
0.570415
0.970987
0.268588
0.733234
1
1
0.975776
0.94527
0.0364709
0.280361
0
0.0181141
0.557039
0.517688
0.0812633
0.0724179
0.904487
0.426026
0.609586
0.164316
0.021539
0
0
0
0.213967
0.00942822
0.00926868
0
0
0
0
0
0
0
0
0
0
0
0
0
0
0
0
0
0
0
0
0
0
0
0
0
0
0
0
0
0
0
0
0
0
0
0
0
0
0
0
0
0
0
0
0
0
0
0
0
0
0
0
0
0
0
0
0
0
0
0
0
0
0
0
0
0
0
0
0
0
0
0
0
0
0
0
0.167547
0
0.244097
0
0
0
0
0
0
0
0.348874
0
0.449072
0.667547
1
0.744097
1
1
1
1
1
0.848874
1
0.949072
1
1
1
1
1
0
0
0
0
0
0
0
0.472957
0
0.398911
0
0
0
0
0
0
0
0.285714
0
0.203568
0.972957
1
0.898911
1
1
1
1
1
0.785714
1
0.703568
1
1
1
1
1
1
1
1
1
0.870002
0.370002
0.951957
0.46137
1
1
1
1
0.99463
0.570711
1
0.67243
0
0
0.00941352
0
0
0
0
0
0.0760808
0
0.17243
0
0
0
0
0
1
1
1
1
1
0.694635
0.999676
0.613438
1
1
1
1
0.971427
0.496316
0.91025
0.41025
0.194635
0
0.113762
0
0
0
0
0
0.0248893
0
0
0
0
0
0
0
0
0
0
0
0
0
0
0.116225
0
0.0297092
0
0
0
0
0
0
0
0
0
0
0.613833
0.997608
0.408739
0.879029
1
1
1
1
0.131577
0.464656
0.000155729
0.0832351
0.757024
0.863003
0.257024
0.363003
0
0
0
0
0
0
0
0
0
0
0
0
0
0
0
0
0
0
0
0
0
0
0
0
0
0
0
0
0
0
0
0
0
0
0
0
1
1
1
0.963351
0.81647
0.31647
0.60737
0.144019
0.821651
0.614527
0.321651
0.151176
0.247984
0.016049
0.0185843
0
0
0
0
0
0
0
0
0
0
0
0
0
0
0
0
0
0
0
0
0
0
0
0
0
0
0
0
0
0
0
0
0
0
0
0
0
0
0
0
0
0
0
0
0
0
0
0
0
0
0
0
0
0
0
0
0
0
0
0
0
0
0
0
0
0
0
0
0
0
0
0
0
0
0
0
0
0
0
0
0
0.000680242
0.11086
0.0801697
0.440349
0.287561
0.298428
0.787561
0.79791
0.195822
0.695822
0.149372
0.626291
1
0.999482
0.976919
0.954209
0.121706
0.000660014
0.415461
0.044933
0
0
0
0
0.622641
0.12316
0.548231
0.0940215
0
0
0
0
0
0
0
0
0
0
0
0
0
0
0
0
0
0
0
0
0
0
0
0
0
0
0
0
0
0
0
0
0
0
0
0
0
0
0
0
0
0
0
0
0
0
0
0
0
0
0
0
0
0
0
0
0
0
0
0
0
0
0
0
0
0
0
0
0.0330392
0.269473
0
0.00951556
0.532505
0.508041
0.055586
0.0538315
0
0
0
0
0
0
0
0
0.227105
0.015135
0.00776105
0
0
0
0
0
0
0
0
0
0
0
0
0
0
0
0
0
0
0
0
0
0
0
0
0
0
0
0
0
0
0
0
0
0
0
0
0
0
0
0
0
0
0
0
0
0
0
0
0
0
0
0
0
0
0
0
0
0
0
0
0
0
0
0
0
0
0
0
0
0
0
0
0
0
0
0
0
0
0
0
0
0
0
0
0
0
0
0
0
0
0
0
0
0
0
0
0
0
0
0
0
0
0
0
0
0
0
0
0

SCALARS P float
LOOKUP_TABLE default
-0.0111382
-0.0116423
-0.0109806
-0.0115195
-0.0122142
-0.0121674
-0.0112122
-0.0116848
-0.0122017
-0.0128282
-0.012892
-0.0134541
-0.0136672
-0.0127374
-0.0132626
-0.0112149
-0.0116711
-0.0121558
-0.0111612
-0.0116177
-0.0120922
-0.0126434
-0.0131058
-0.0125586
-0.0129898
-0.0140417
-0.0144235
-0.0145352
-0.01507
-0.0137388
-0.0141269
-0.0148944
-0.0155519
-0.0150913
-0.0158358
-0.0143952
-0.0145201
-0.0135111
-0.0138283
-0.0133566
-0.0136317
-0.014031
-0.0140996
-0.0137921
-0.0138202
-0.0110593
-0.0115335
-0.0120195
-0.0109133
-0.0114229
-0.0119419
-0.0124901
-0.0129184
-0.0124415
-0.0128948
-0.0107241
-0.0112858
-0.0118592
-0.0104889
-0.0111176
-0.0117661
-0.0124133
-0.0129214
-0.0124024
-0.0129989
-0.0132754
-0.0135345
-0.0132705
-0.0135388
-0.0136735
-0.0136761
-0.0136768
-0.0136692
-0.0133461
-0.0136496
-0.0135081
-0.0138767
-0.0138069
-0.013805
-0.0140754
-0.014095
-0.0151214
-0.0159344
-0.014977
-0.0158377
-0.0144922
-0.0143073
-0.0146454
-0.015504
-0.0141411
-0.0149176
-0.0139696
-0.0135061
-0.0140244
-0.0138056
-0.0137083
-0.0134605
-0.0134568
-0.0130068
-0.013095
-0.0126361
-0.0135427
-0.0141949
-0.012944
-0.0134843
-0.0129799
-0.0124565
-0.0124192
-0.0128552
-0.0120063
-0.0123508
-0.0120104
-0.011683
-0.0125114
-0.012022
-0.0121377
-0.011648
-0.0116195
-0.0113615
-0.0112424
-0.0109751
-0.0135372
-0.0132635
-0.0135131
-0.0132165
-0.0128739
-0.0123864
-0.012798
-0.0122644
-0.0136411
-0.0133268
-0.0139297
-0.0135966
-0.0128797
-0.0122928
-0.0131033
-0.0124268
-0.0118576
-0.011339
-0.0116689
-0.011049
-0.0108528
-0.0105035
-0.010325
-0.0098527
-0.0116205
-0.0108905
-0.0116006
-0.0106645
-0.00998031
-0.00959302
-0.00950925
-0.00906269
-0.0102003
-0.0109076
-0.0116525
-0.00984336
-0.0106353
-0.0114949
-0.0124012
-0.0131259
-0.0123869
-0.0132957
-0.00939909
-0.0102704
-0.0112567
-0.00882767
-0.00975379
-0.0108758
-0.0123326
-0.0135085
-0.0121796
-0.013734
-0.0137658
-0.0142375
-0.0141406
-0.0147706
-0.0145005
-0.0145608
-0.0151217
-0.0152391
-0.0146682
-0.0155315
-0.0153984
-0.0166252
-0.0159756
-0.0161573
-0.0171421
-0.0173423
-0.00807813
-0.00901418
-0.010261
-0.00708541
-0.00793563
-0.00922357
-0.0118047
-0.0139009
-0.0109587
-0.0138565
-0.00578581
-0.00637702
-0.00753024
-0.00414945
-0.00421254
-0.00476283
-0.00934925
-0.0121583
-0.00606393
-0.00381565
-0.0164281
-0.0176415
-0.0120649
0.00711649
-0.011909
-0.00532735
0.0295817
0.037707
0.0087271
0.0477128
0.0287346
0.0597432
0.0648536
0.0658171
0.0606726
0.0600691
-0.0144031
-0.0140541
-0.0150967
-0.0147501
-0.0135188
-0.0127285
-0.0142169
-0.0133167
-0.0160452
-0.0157437
-0.0172831
-0.0171072
-0.0153006
-0.0142698
-0.016913
-0.0156488
-0.0116541
-0.0104236
-0.0120304
-0.0107558
-0.00874735
-0.00771952
-0.00905942
-0.00844861
-0.0128862
-0.0120529
-0.0139806
-0.013517
-0.0119036
-0.00813515
-0.0145877
-0.00245377
-0.00928994
-0.0167086
0.0340348
0.0159792
-0.0190628
-0.0168972
-0.0103431
-0.0195826
0.0661864
0.0563906
0.0598431
0.0601496
0.018267
-0.0121643
0.0394099
0.00443479
-0.0141093
-0.0128341
-0.01436
-0.0117266
-0.0122605
-0.00355588
-0.00955992
-0.00940543
-0.013053
-0.0104981
-0.00861541
-0.0074354
-0.0089937
-0.0101285
-0.00720798
-0.00901056
-0.0117191
-0.0119818
-0.011582
-0.0117352
-0.0114747
-0.0114816
-0.0114782
-0.0115404
-0.0113852
-0.0113619
-0.0114948
-0.0115133
-0.0111884
-0.0113683
-0.010692
-0.0111074
-0.0115967
-0.0118203
-0.0118234
-0.0124602
-0.0111786
-0.0111275
-0.0108836
-0.0108397
-0.0112999
-0.0109463
-0.0106357
-0.0105669
-0.0103704
-0.0103007
-0.0107109
-0.0104033
-0.0115322
-0.0110478
-0.0119625
-0.0112146
-0.0108248
-0.0104086
-0.0109841
-0.0103551
-0.0101593
-0.0110859
-0.00947
-0.0109915
-0.0129791
-0.0140986
-0.0154959
-0.0177131
-0.00938654
-0.011369
-0.00875205
-0.00955144
-0.0213556
-0.0253569
-0.00656441
-0.0157814
-0.0126095
-0.0113725
-0.0142482
-0.0121173
-0.0111362
-0.0101879
-0.0115312
-0.0100194
-0.0166344
-0.0126282
-0.0226318
-0.0151853
-0.0115751
-0.00953319
-0.011867
-0.00920684
-0.0101634
-0.0100797
-0.0100302
-0.00992778
-0.0101932
-0.0100628
-0.00997571
-0.00985306
-0.0100157
-0.00987037
-0.0100177
-0.0100734
-0.0101771
-0.0100273
-0.0100951
-0.00990449
-0.00998025
-0.0100463
-0.0098533
-0.0099308
-0.0101518
-0.00998609
-0.0103857
-0.0102059
-0.0102249
-0.01047
-0.0107163
-0.0105346
-0.0111382
-0.0109654
-0.0108026
-0.0112122
-0.0102112
-0.010469
-0.0101133
-0.0103902
-0.0108084
-0.0112149
-0.0107455
-0.0111612
-0.00992607
-0.0096808
-0.00969476
-0.00934932
-0.0096328
-0.00972683
-0.00930934
-0.00942679
-0.00923854
-0.00884737
-0.00868897
-0.00827096
-0.0088614
-0.00902641
-0.00832613
-0.00854321
-0.00993392
-0.0102388
-0.00967019
-0.0100151
-0.0106208
-0.0110593
-0.0104369
-0.0109133
-0.00932408
-0.00972233
-0.00890397
-0.00936369
-0.0101962
-0.0107241
-0.00989844
-0.0104889
-0.00489092
0.00792932
0.00216001
0.0350931
0.0513536
0.0495547
0.0898588
0.097698
0.0278606
0.0752188
0.0540657
0.105846
0.104245
0.108446
0.122222
0.123761
-0.00390377
-0.0176971
0.0337868
-0.00773399
-0.0111662
-0.00853383
-0.00867038
-0.00660079
0.0744151
0.0204008
0.10356
0.0405586
-0.00735846
-0.00550024
-0.00713897
-0.00543121
0.0392416
0.088083
0.00654469
0.0542166
0.111833
0.111135
0.0992331
0.0944346
-0.00997616
0.0149102
-0.0117762
-0.012289
0.0593817
0.0534603
-0.000948932
-0.0025316
0.0803404
0.0265479
0.0425141
0.00219682
-0.00472127
-0.00351883
-0.00349729
-0.00246173
0.00839484
-0.00808929
-0.0126677
-0.00867691
-0.00509319
-0.00355997
-0.00543014
-0.00402621
-0.00774113
-0.00750454
-0.00627571
-0.00642389
-0.00766575
-0.00797047
-0.00684415
-0.00730127
-0.00540093
-0.00555638
-0.00501095
-0.0049646
-0.00611464
-0.00665827
-0.00550362
-0.00605615
-0.00841154
-0.00894006
-0.00784613
-0.00844921
-0.00954054
-0.0102003
-0.00911417
-0.00984336
-0.00726262
-0.00790946
-0.00666528
-0.00731254
-0.00861539
-0.00939909
-0.00802144
-0.00882767
-0.00387821
-0.00422468
-0.00325166
-0.00380935
-0.00487359
-0.00545308
-0.00442203
-0.00492578
-0.00363031
-0.00380558
-0.00380985
-0.00376296
-0.00415246
-0.00446468
-0.00391045
-0.00403221
-0.00603898
-0.00664236
-0.00540927
-0.00589478
-0.00730238
-0.00807813
-0.00642685
-0.00708541
-0.00476949
-0.00506193
-0.00412589
-0.00416426
-0.00537196
-0.00578581
-0.00415139
-0.00414945
-0.00228637
-0.00152161
-0.000597542
-0.000561057
0.00102493
0.00371845
-0.000248954
0.00577744
0.0059034
0.00967487
0.000470969
0.00234405
0.00531794
0.000427453
0.00176589
0.00307317
0.00694188
0.0115132
0.00236267
0.0153312
0.028831
0.048543
0.0219971
0.0366369
0.0520364
0.0527743
0.0443901
0.0466867
0.0233543
0.0352138
0.0348488
0.0421488
0.0422201
0.0444901
0.0452615
0.0461804
0.000224002
0.00130993
0.00191569
0.000254265
0.00197229
0.00432166
0.000226518
0.016734
0.00479896
0.0127699
-0.000497232
0.00142444
0.00462133
-0.0021901
-0.00090833
0.000793704
0.00691716
0.00969498
0.00167171
0.00689105
0.0391605
0.0445506
0.0277333
0.03751
0.0464627
0.046909
0.0429531
0.04465
0.0200811
0.0338071
0.0252566
0.0423547
0.0420667
0.0445597
0.0476865
0.049057
0.0517817
0.0488164
0.0452486
0.0395222
0.0357184
0.0112122
0.0262182
0.0103698
0.0431652
0.0375703
0.0451131
0.0416799
0.0265058
0.0118453
0.0351704
0.0190322
-0.00227453
-0.00317285
0.00323185
0.000590148
-0.00481055
-0.00701143
-0.00285833
-0.0054626
0.00362956
0.00108498
0.00282912
-0.00196751
-0.00222726
-0.00464165
-0.00331181
-0.0048247
0.0458374
0.0428846
0.04322
0.0378366
0.0370474
0.0212381
0.0273197
0.0135999
0.0429062
0.0361768
0.04785
0.0434043
0.0222444
0.00865256
0.0306041
0.00970783
0.00327225
-0.00297596
0.00421443
0.000217727
-0.00384718
-0.00533399
-0.00279238
-0.00525431
0.0037172
0.000800114
-0.00180601
-0.00347971
-0.00323462
-0.00595011
-0.00604685
-0.00834247
-0.00420207
-0.00375406
-0.00377813
-0.00605068
-0.00620385
-0.00705008
-0.0047663
-0.000316876
-0.00876131
-0.00966801
-0.00757341
-0.00804642
-0.00910246
-0.00875479
-0.00937598
-0.0104425
-0.0107786
-0.0141034
-0.0119571
-0.0143412
0.0298147
0.0554342
0.0182646
0.054777
0.0560131
0.0559001
0.0627909
0.062188
-0.0056412
0.0220085
-0.0173256
-0.0113247
0.0461121
0.0546652
0.00356201
0.0120829
-0.00963139
-0.010288
-0.0112613
-0.0102577
-0.0108945
-0.0117515
-0.01254
-0.0142793
-0.0128097
-0.0141066
-0.0106916
-0.0112858
-0.01203
-0.0109654
-0.0115195
-0.0121674
-0.0129015
-0.0138906
-0.012892
-0.0136672
-0.0162849
-0.017899
-0.0154986
-0.0166685
-0.0189242
-0.019482
-0.0174924
-0.0179685
-0.0148971
-0.0157587
-0.0144235
-0.01507
-0.016399
-0.0167851
-0.0155519
-0.0158358
0.0556772
0.0551235
0.0630256
0.0623776
0.0402523
0.00798482
0.0311344
-0.00747086
0.051521
0.0343531
0.0080259
-0.00800281
-0.000557322
-0.020529
-0.0206673
-0.0200695
-0.00936321
-0.00880736
-0.0150125
-0.0127271
-0.00917574
-0.0103488
-0.0115968
-0.0115901
-0.0170501
-0.0146049
-0.0167811
-0.0149815
-0.0131068
-0.0125839
-0.0136706
-0.0129686
-0.0198916
-0.0201728
-0.0182461
-0.0183378
-0.019915
-0.0183341
-0.0180108
-0.0169686
-0.0169638
-0.0169301
-0.0159344
-0.0158377
-0.0165895
-0.0158467
-0.015504
-0.0149176
-0.0163309
-0.0149152
-0.0156538
-0.014552
-0.0138003
-0.0130735
-0.0136284
-0.0129484
-0.0149119
-0.0140417
-0.0141949
-0.0134843
-0.0132829
-0.012687
-0.0128552
-0.0123508
-0.00907417
-0.011624
-0.00730758
-0.00861456
-0.0163844
-0.0152316
-0.0104236
-0.00865943
-0.00629193
-0.0070977
-0.00608503
-0.00656971
-0.0076092
-0.00435173
-0.00651085
-0.000301112
-0.00913043
-0.00631073
-0.00516571
-0.00433069
-0.00467856
-0.00388343
-0.00374276
-0.00347707
-0.00155145
-0.00252601
0.0029909
-0.000637605
-0.00278678
-0.00305692
-0.00183925
-0.00270989
-0.00682749
0.011274
0.00724047
0.0684102
0.0395164
0.0407485
0.125033
0.119079
0.0278341
0.114712
0.0175284
0.10307
0.166197
0.16186
0.165226
0.158582
0.0184102
0.00219951
0.0584771
0.00504396
-0.000972532
-0.00264748
-0.00328711
-0.0040581
0.0943651
0.0114151
0.0845899
0.00566642
-0.00728122
-0.00631769
-0.00878973
-0.00762203
-0.00372973
-0.00364002
-0.00351248
-0.00348519
-0.0036659
-0.00362993
-0.00345603
-0.00330527
-0.00332381
-0.0033947
-0.00324987
-0.00343808
-0.00334862
-0.00312346
-0.00340327
-0.00314224
-0.00351452
-0.00327077
-0.00300958
-0.00250335
-0.00286946
-0.00228637
-0.00173827
-0.000561057
-0.0027009
-0.00201255
-0.00265976
-0.00191347
-0.00101903
0.000470969
-0.00091381
0.000427453
-0.00346286
-0.00372354
-0.00440122
-0.00441589
-0.00367454
-0.00337281
-0.0042219
-0.00383266
-0.00578054
-0.00538145
-0.00683812
-0.00627698
-0.00498061
-0.00450182
-0.00578646
-0.00529185
-0.00284316
-0.00205836
-0.0032422
-0.00239752
-0.00104989
0.000224002
-0.0012828
0.000254265
-0.00389092
-0.00307786
-0.0047362
-0.00406841
-0.00201106
-0.000497232
-0.00324645
-0.0021901
-0.00511297
0.0378539
-0.0119496
-0.0106292
0.085213
0.0789781
-0.00258828
-0.00337249
-0.0124691
-0.012481
-0.0125952
-0.012385
-0.0125489
-0.0125135
-0.0122564
-0.0120514
0.0278692
-0.00840683
-0.0111836
-0.0110993
-0.00947399
-0.00842984
-0.00993829
-0.00902956
-0.0119194
-0.0109806
-0.0115687
-0.0109114
-0.0101306
-0.00941194
-0.0102657
-0.00969407
-0.0126023
-0.0122752
-0.0124637
-0.0121091
-0.0120207
-0.0117406
-0.0118286
-0.0115504
-0.0122465
-0.0119261
-0.0119818
-0.0117352
-0.0116698
-0.0114267
-0.0115404
-0.0113619
-0.0113406
-0.0108522
-0.0112135
-0.0108259
-0.0103574
-0.00990618
-0.0104339
-0.0100715
-0.0111444
-0.0108218
-0.0111275
-0.0108397
-0.0105017
-0.0102012
-0.0105669
-0.0103007
-0.00765013
-0.00706432
-0.00830966
-0.00775507
-0.00657277
-0.0061225
-0.00730673
-0.00693131
-0.0088115
-0.00833554
-0.00920555
-0.00881599
-0.00796091
-0.00767441
-0.0085216
-0.00832197
-0.00567375
-0.00520401
-0.00660684
-0.00633155
-0.00470275
-0.00420207
-0.00612081
-0.00605068
-0.00747039
-0.00735949
-0.00822144
-0.00823582
-0.00736874
-0.00757341
-0.00839387
-0.00875479
-0.00951645
-0.00920848
-0.00975926
-0.00951959
-0.00898894
-0.00886525
-0.00936293
-0.00930063
-0.00994529
-0.009758
-0.0100797
-0.00992778
-0.00964977
-0.00963402
-0.00985306
-0.00987037
-0.0088468
-0.00894957
-0.00934321
-0.00950423
-0.00919796
-0.00963139
-0.00980141
-0.0102577
-0.00972013
-0.00991792
-0.00998609
-0.0102059
-0.0102383
-0.0106916
-0.0105346
-0.0109806

SCALARS U float
LOOKUP_TABLE default
0.0238646
0.0247151
0.0243673
0.0253816
0.0253547
0.0262586
0.0235635
0.0242576
0.0247358
0.0256982
0.0268043
0.0256662
0.0268682
0.0249483
0.0248567
0.0234312
0.0240121
0.0243738
0.0234901
0.0239813
0.0242496
0.0244898
0.0243448
0.0242825
0.0240764
0.025207
0.026323
0.0243695
0.0252365
0.0244451
0.0237553
0.023284
0.0238194
0.0220736
0.0222484
0.0228793
0.0219151
0.0239418
0.0233216
0.0236432
0.0230248
0.0225593
0.0217439
0.0222894
0.0215268
0.0237579
0.0241691
0.0243542
0.0242486
0.0245798
0.0246868
0.0243064
0.0240237
0.0245581
0.0241822
0.024961
0.025213
0.0252521
0.0258765
0.0260602
0.0260587
0.0250497
0.0245698
0.02581
0.0252306
0.0235197
0.0228363
0.0235654
0.0227473
0.0220396
0.0212276
0.0217927
0.020815
0.023799
0.0227713
0.0242704
0.0229549
0.0215493
0.0202687
0.0213418
0.0195975
0.0208564
0.020666
0.0197156
0.0191148
0.0209682
0.0201333
0.0187489
0.0176907
0.0181307
0.0167091
0.0195036
0.0191908
0.020976
0.0203569
0.0208421
0.0203498
0.0199835
0.0199509
0.0201634
0.020395
0.0179446
0.0163639
0.0181161
0.0165286
0.0192296
0.0195662
0.0184499
0.0169471
0.0187461
0.0173866
0.0200122
0.0203539
0.0202786
0.0209372
0.0210843
0.0222473
0.0217198
0.022338
0.0236479
0.0248818
0.0205184
0.020048
0.0199515
0.0193674
0.0199624
0.0204254
0.0192562
0.0198601
0.0190896
0.018207
0.0179026
0.0164681
0.017867
0.018402
0.0155695
0.0155759
0.0215363
0.0233879
0.0213767
0.0240657
0.025815
0.0283221
0.0280432
0.0327694
0.0201855
0.0238074
0.0170867
0.0210823
0.0300023
0.038944
0.0294757
0.0448348
0.0269402
0.0270974
0.0271177
0.0280528
0.0282758
0.0284342
0.0268861
0.0262422
0.0283513
0.0277427
0.0290666
0.0295217
0.0300265
0.029786
0.0307276
0.0318902
0.0303303
0.0299281
0.0329547
0.0330939
0.0250725
0.0233872
0.0263671
0.0242175
0.0212433
0.0188528
0.0213737
0.0181239
0.0283533
0.0256048
0.0313774
0.0278414
0.0218799
0.0175613
0.023
0.0173366
0.0300164
0.0317539
0.0339878
0.0295054
0.0323006
0.0361449
0.036451
0.0377534
0.0412218
0.0452956
0.0279306
0.0319325
0.0380706
0.0246849
0.0293859
0.0376028
0.0483981
0.059797
0.0546845
0.0756884
0.0357152
0.0308175
0.0429164
0.0351545
0.024641
0.0177002
0.0268235
0.0184414
0.0587917
0.0448194
0.0759373
0.0539892
0.0308909
0.020001
0.0340182
0.0216628
0.0164138
0.0141421
0.0147053
0.0113263
0.0122663
0.0110541
0.00797129
0.00455334
0.0129724
0.00840229
0.0114931
0.00614478
0.00320948
-0.00321539
-0.000583565
-0.00949815
0.0113408
0.0141682
0.00191378
-0.00021051
0.0230673
0.0398951
0.00154299
0.00138929
-0.0103113
-0.0207855
-0.019052
-0.0336208
-0.0353068
-0.0609051
-0.0579065
-0.0950174
0.0110257
0.00540045
0.00947754
-0.00100945
-0.00274306
-0.0129662
-0.0135519
-0.021094
0.00820098
-0.00734117
0.00982881
-0.0051501
-0.0246672
-0.0300585
-0.0266853
-0.0364171
-0.0203225
-0.0298923
-0.0189583
-0.0159235
-0.0466663
-0.0786404
-0.0143591
-0.0212891
-0.0178549
-0.0023292
-0.0182733
0.0060163
0.0135057
0.03305
0.0259568
0.0501361
0.0187787
0.0176319
0.0183464
0.0175543
0.0203093
0.0194931
0.0174973
0.017156
0.0164057
0.0165547
0.0180169
0.0161442
0.0224427
0.02123
0.0255712
0.023974
0.0188597
0.0157004
0.0203086
0.014975
0.015415
0.0159991
0.0149464
0.0157225
0.014401
0.0136743
0.0150519
0.0158072
0.0155472
0.0161947
0.0138887
0.0145822
0.0126173
0.0116031
0.00942372
0.00821993
0.0121667
0.0132276
0.0097003
0.011426
0.0305545
0.0289031
0.0380728
0.0373206
0.0233264
0.0136706
0.0304054
0.0140259
0.0506081
0.0554283
0.0653265
0.0772328
0.0476369
0.0157751
0.057236
-0.00688466
0.00328683
0.00258208
-0.00688972
-0.00717484
0.00630144
0.00912166
0.00166368
0.00642311
-0.0255295
-0.023369
-0.0628525
-0.0476183
-0.00338656
0.0043446
-0.011535
0.00384008
0.0163443
0.0168312
0.0173396
0.0176638
0.0156509
0.0168951
0.0184268
0.0186248
0.0195612
0.0196811
0.0181702
0.0194267
0.0147597
0.0163755
0.0137363
0.0158735
0.0179181
0.0193449
0.0177699
0.0194035
0.0206992
0.0208021
0.0218153
0.0219664
0.0206148
0.0217144
0.0228815
0.0231473
0.0238646
0.0242469
0.0227048
0.0235635
0.0206127
0.02172
0.0207649
0.0218878
0.0226619
0.0234312
0.0227921
0.0234901
0.0126857
0.015512
0.011923
0.0155815
0.0178469
0.0197006
0.0183797
0.0203909
0.0122285
0.016577
0.0142941
0.0191179
0.01965
0.0216221
0.0219935
0.0235552
0.0211452
0.0222696
0.0218502
0.0229214
0.0231291
0.0237579
0.0237026
0.0242486
0.0229505
0.023871
0.0245026
0.0251219
0.0245193
0.024961
0.0255621
0.0258765