# vtk DataFile Version 2.0
Gerris simulation version 1.3.2 (131206-155120)
ASCII
DATASET UNSTRUCTURED_GRID

POINTS 1089 float
-0.5 0.46875 0
-0.46875 0.46875 0
-0.5 0.5 0
-0.46875 0.5 0
-0.4375 0.46875 0
-0.4375 0.5 0
-0.5 0.4375 0
-0.46875 0.4375 0
-0.4375 0.4375 0
-0.40625 0.46875 0
-0.40625 0.5 0
-0.375 0.46875 0
-0.375 0.5 0
-0.40625 0.4375 0
-0.375 0.4375 0
-0.5 0.40625 0
-0.46875 0.40625 0
-0.4375 0.40625 0
-0.5 0.375 0
-0.46875 0.375 0
-0.4375 0.375 0
-0.40625 0.40625 0
-0.375 0.40625 0
-0.40625 0.375 0
-0.375 0.375 0
-0.34375 0.46875 0
-0.34375 0.5 0
-0.3125 0.46875 0
-0.3125 0.5 0
-0.34375 0.4375 0
-0.3125 0.4375 0
-0.28125 0.46875 0
-0.28125 0.5 0
-0.25 0.46875 0
-0.25 0.5 0
-0.28125 0.4375 0
-0.25 0.4375 0
-0.34375 0.40625 0
-0.3125 0.40625 0
-0.34375 0.375 0
-0.3125 0.375 0
-0.28125 0.40625 0
-0.25 0.40625 0
-0.28125 0.375 0
-0.25 0.375 0
-0.5 0.34375 0
-0.46875 0.34375 0
-0.4375 0.34375 0
-0.5 0.3125 0
-0.46875 0.3125 0
-0.4375 0.3125 0
-0.40625 0.34375 0
-0.375 0.34375 0
-0.40625 0.3125 0
-0.375 0.3125 0
-0.5 0.28125 0
-0.46875 0.28125 0
-0.4375 0.28125 0
-0.5 0.25 0
-0.46875 0.25 0
-0.4375 0.25 0
-0.40625 0.28125 0
-0.375 0.28125 0
-0.40625 0.25 0
-0.375 0.25 0
-0.34375 0.34375 0
-0.3125 0.34375 0
-0.34375 0.3125 0
-0.3125 0.3125 0
-0.28125 0.34375 0
-0.25 0.34375 0
-0.28125 0.3125 0
-0.25 0.3125 0
-0.34375 0.28125 0
-0.3125 0.28125 0
-0.34375 0.25 0
-0.3125 0.25 0
-0.28125 0.28125 0
-0.25 0.28125 0
-0.28125 0.25 0
-0.25 0.25 0
-0.21875 0.46875 0
-0.21875 0.5 0
-0.1875 0.46875 0
-0.1875 0.5 0
-0.21875 0.4375 0
-0.1875 0.4375 0
-0.15625 0.46875 0
-0.15625 0.5 0
-0.125 0.46875 0
-0.125 0.5 0
-0.15625 0.4375 0
-0.125 0.4375 0
-0.21875 0.40625 0
-0.1875 0.40625 0
-0.21875 0.375 0
-0.1875 0.375 0
-0.15625 0.40625 0
-0.125 0.40625 0
-0.15625 0.375 0
-0.125 0.375 0
-0.09375 0.46875 0
-0.09375 0.5 0
-0.0625 0.46875 0
-0.0625 0.5 0
-0.09375 0.4375 0
-0.0625 0.4375 0
-0.03125 0.46875 0
-0.03125 0.5 0
0 0.46875 0
0 0.5 0
-0.03125 0.4375 0
0 0.4375 0
-0.09375 0.40625 0
-0.0625 0.40625 0
-0.09375 0.375 0
-0.0625 0.375 0
-0.03125 0.40625 0
0 0.40625 0
-0.03125 0.375 0
0 0.375 0
-0.21875 0.34375 0
-0.1875 0.34375 0
-0.21875 0.3125 0
-0.1875 0.3125 0
-0.15625 0.34375 0
-0.125 0.34375 0
-0.15625 0.3125 0
-0.125 0.3125 0
-0.21875 0.28125 0
-0.1875 0.28125 0
-0.21875 0.25 0
-0.1875 0.25 0
-0.15625 0.28125 0
-0.125 0.28125 0
-0.15625 0.25 0
-0.125 0.25 0
-0.09375 0.34375 0
-0.0625 0.34375 0
-0.09375 0.3125 0
-0.0625 0.3125 0
-0.03125 0.34375 0
0 0.34375 0
-0.03125 0.3125 0
0 0.3125 0
-0.09375 0.28125 0
-0.0625 0.28125 0
-0.09375 0.25 0
-0.0625 0.25 0
-0.03125 0.28125 0
0 0.28125 0
-0.03125 0.25 0
0 0.25 0
-0.5 0.21875 0
-0.46875 0.21875 0
-0.4375 0.21875 0
-0.5 0.1875 0
-0.46875 0.1875 0
-0.4375 0.1875 0
-0.40625 0.21875 0
-0.375 0.21875 0
-0.40625 0.1875 0
-0.375 0.1875 0
-0.5 0.15625 0
-0.46875 0.15625 0
-0.4375 0.15625 0
-0.5 0.125 0
-0.46875 0.125 0
-0.4375 0.125 0
-0.40625 0.15625 0
-0.375 0.15625 0
-0.40625 0.125 0
-0.375 0.125 0
-0.34375 0.21875 0
-0.3125 0.21875 0
-0.34375 0.1875 0
-0.3125 0.1875 0
-0.28125 0.21875 0
-0.25 0.21875 0
-0.28125 0.1875 0
-0.25 0.1875 0
-0.34375 0.15625 0
-0.3125 0.15625 0
-0.34375 0.125 0
-0.3125 0.125 0
-0.28125 0.15625 0
-0.25 0.15625 0
-0.28125 0.125 0
-0.25 0.125 0
-0.5 0.09375 0
-0.46875 0.09375 0
-0.4375 0.09375 0
-0.5 0.0625 0
-0.46875 0.0625 0
-0.4375 0.0625 0
-0.40625 0.09375 0
-0.375 0.09375 0
-0.40625 0.0625 0
-0.375 0.0625 0
-0.5 0.03125 0
-0.46875 0.03125 0
-0.4375 0.03125 0
-0.5 0 0
-0.46875 0 0
-0.4375 0 0
-0.40625 0.03125 0
-0.375 0.03125 0
-0.40625 0 0
-0.375 0 0
-0.34375 0.09375 0
-0.3125 0.09375 0
-0.34375 0.0625 0
-0.3125 0.0625 0
-0.28125 0.09375 0
-0.25 0.09375 0
-0.28125 0.0625 0
-0.25 0.0625 0
-0.34375 0.03125 0
-0.3125 0.03125 0
-0.34375 0 0
-0.3125 0 0
-0.28125 0.03125 0
-0.25 0.03125 0
-0.28125 0 0
-0.25 0 0
-0.21875 0.21875 0
-0.1875 0.21875 0
-0.21875 0.1875 0
-0.1875 0.1875 0
-0.15625 0.21875 0
-0.125 0.21875 0
-0.15625 0.1875 0
-0.125 0.1875 0
-0.21875 0.15625 0
-0.1875 0.15625 0
-0.21875 0.125 0
-0.1875 0.125 0
-0.15625 0.15625 0
-0.125 0.15625 0
-0.15625 0.125 0
-0.125 0.125 0
-0.09375 0.21875 0
-0.0625 0.21875 0
-0.09375 0.1875 0
-0.0625 0.1875 0
-0.03125 0.21875 0
0 0.21875 0
-0.03125 0.1875 0
0 0.1875 0
-0.09375 0.15625 0
-0.0625 0.15625 0
-0.09375 0.125 0
-0.0625 0.125 0
-0.03125 0.15625 0
0 0.15625 0
-0.03125 0.125 0
0 0.125 0
-0.21875 0.09375 0
-0.1875 0.09375 0
-0.21875 0.0625 0
-0.1875 0.0625 0
-0.15625 0.09375 0
-0.125 0.09375 0
-0.15625 0.0625 0
-0.125 0.0625 0
-0.21875 0.03125 0
-0.1875 0.03125 0
-0.21875 0 0
-0.1875 0 0
-0.15625 0.03125 0
-0.125 0.03125 0
-0.15625 0 0
-0.125 0 0
-0.09375 0.09375 0
-0.0625 0.09375 0
-0.09375 0.0625 0
-0.0625 0.0625 0
-0.03125 0.09375 0
0 0.09375 0
-0.03125 0.0625 0
0 0.0625 0
-0.09375 0.03125 0
-0.0625 0.03125 0
-0.09375 0 0
-0.0625 0 0
-0.03125 0.03125 0
0 0.03125 0
-0.03125 0 0
0 0 0
0.03125 0.46875 0
0.03125 0.5 0
0.0625 0.46875 0
0.0625 0.5 0
0.03125 0.4375 0
0.0625 0.4375 0
0.09375 0.46875 0
0.09375 0.5 0
0.125 0.46875 0
0.125 0.5 0
0.09375 0.4375 0
0.125 0.4375 0
0.03125 0.40625 0
0.0625 0.40625 0
0.03125 0.375 0
0.0625 0.375 0
0.09375 0.40625 0
0.125 0.40625 0
0.09375 0.375 0
0.125 0.375 0
0.15625 0.46875 0
0.15625 0.5 0
0.1875 0.46875 0
0.1875 0.5 0
0.15625 0.4375 0
0.1875 0.4375 0
0.21875 0.46875 0
0.21875 0.5 0
0.25 0.46875 0
0.25 0.5 0
0.21875 0.4375 0
0.25 0.4375 0
0.15625 0.40625 0
0.1875 0.40625 0
0.15625 0.375 0
0.1875 0.375 0
0.21875 0.40625 0
0.25 0.40625 0
0.21875 0.375 0
0.25 0.375 0
0.03125 0.34375 0
0.0625 0.34375 0
0.03125 0.3125 0
0.0625 0.3125 0
0.09375 0.34375 0
0.125 0.34375 0
0.09375 0.3125 0
0.125 0.3125 0
0.03125 0.28125 0
0.0625 0.28125 0
0.03125 0.25 0
0.0625 0.25 0
0.09375 0.28125 0
0.125 0.28125 0
0.09375 0.25 0
0.125 0.25 0
0.15625 0.34375 0
0.1875 0.34375 0
0.15625 0.3125 0
0.1875 0.3125 0
0.21875 0.34375 0
0.25 0.34375 0
0.21875 0.3125 0
0.25 0.3125 0
0.15625 0.28125 0
0.1875 0.28125 0
0.15625 0.25 0
0.1875 0.25 0
0.21875 0.28125 0
0.25 0.28125 0
0.21875 0.25 0
0.25 0.25 0
0.28125 0.46875 0
0.28125 0.5 0
0.3125 0.46875 0
0.3125 0.5 0
0.28125 0.4375 0
0.3125 0.4375 0
0.34375 0.46875 0
0.34375 0.5 0
0.375 0.46875 0
0.375 0.5 0
0.34375 0.4375 0
0.375 0.4375 0
0.28125 0.40625 0
0.3125 0.40625 0
0.28125 0.375 0
0.3125 0.375 0
0.34375 0.40625 0
0.375 0.40625 0
0.34375 0.375 0
0.375 0.375 0
0.40625 0.46875 0
0.40625 0.5 0
0.4375 0.46875 0
0.4375 0.5 0
0.40625 0.4375 0
0.4375 0.4375 0
0.46875 0.46875 0
0.46875 0.5 0
0.5 0.46875 0
0.5 0.5 0
0.46875 0.4375 0
0.5 0.4375 0
0.40625 0.40625 0
0.4375 0.40625 0
0.40625 0.375 0
0.4375 0.375 0
0.46875 0.40625 0
0.5 0.40625 0
0.46875 0.375 0
0.5 0.375 0
0.28125 0.34375 0
0.3125 0.34375 0
0.28125 0.3125 0
0.3125 0.3125 0
0.34375 0.34375 0
0.375 0.34375 0
0.34375 0.3125 0
0.375 0.3125 0
0.28125 0.28125 0
0.3125 0.28125 0
0.28125 0.25 0
0.3125 0.25 0
0.34375 0.28125 0
0.375 0.28125 0
0.34375 0.25 0
0.375 0.25 0
0.40625 0.34375 0
0.4375 0.34375 0
0.40625 0.3125 0
0.4375 0.3125 0
0.46875 0.34375 0
0.5 0.34375 0
0.46875 0.3125 0
0.5 0.3125 0
0.40625 0.28125 0
0.4375 0.28125 0
0.40625 0.25 0
0.4375 0.25 0
0.46875 0.28125 0
0.5 0.28125 0
0.46875 0.25 0
0.5 0.25 0
0.03125 0.21875 0
0.0625 0.21875 0
0.03125 0.1875 0
0.0625 0.1875 0
0.09375 0.21875 0
0.125 0.21875 0
0.09375 0.1875 0
0.125 0.1875 0
0.03125 0.15625 0
0.0625 0.15625 0
0.03125 0.125 0
0.0625 0.125 0
0.09375 0.15625 0
0.125 0.15625 0
0.09375 0.125 0
0.125 0.125 0
0.15625 0.21875 0
0.1875 0.21875 0
0.15625 0.1875 0
0.1875 0.1875 0
0.21875 0.21875 0
0.25 0.21875 0
0.21875 0.1875 0
0.25 0.1875 0
0.15625 0.15625 0
0.1875 0.15625 0
0.15625 0.125 0
0.1875 0.125 0
0.21875 0.15625 0
0.25 0.15625 0
0.21875 0.125 0
0.25 0.125 0
0.03125 0.09375 0
0.0625 0.09375 0
0.03125 0.0625 0
0.0625 0.0625 0
0.09375 0.09375 0
0.125 0.09375 0
0.09375 0.0625 0
0.125 0.0625 0
0.03125 0.03125 0
0.0625 0.03125 0
0.03125 0 0
0.0625 0 0
0.09375 0.03125 0
0.125 0.03125 0
0.09375 0 0
0.125 0 0
0.15625 0.09375 0
0.1875 0.09375 0
0.15625 0.0625 0
0.1875 0.0625 0
0.21875 0.09375 0
0.25 0.09375 0
0.21875 0.0625 0
0.25 0.0625 0
0.15625 0.03125 0
0.1875 0.03125 0
0.15625 0 0
0.1875 0 0
0.21875 0.03125 0
0.25 0.03125 0
0.21875 0 0
0.25 0 0
0.28125 0.21875 0
0.3125 0.21875 0
0.28125 0.1875 0
0.3125 0.1875 0
0.34375 0.21875 0
0.375 0.21875 0
0.34375 0.1875 0
0.375 0.1875 0
0.28125 0.15625 0
0.3125 0.15625 0
0.28125 0.125 0
0.3125 0.125 0
0.34375 0.15625 0
0.375 0.15625 0
0.34375 0.125 0
0.375 0.125 0
0.40625 0.21875 0
0.4375 0.21875 0
0.40625 0.1875 0
0.4375 0.1875 0
0.46875 0.21875 0
0.5 0.21875 0
0.46875 0.1875 0
0.5 0.1875 0
0.40625 0.15625 0
0.4375 0.15625 0
0.40625 0.125 0
0.4375 0.125 0
0.46875 0.15625 0
0.5 0.15625 0
0.46875 0.125 0
0.5 0.125 0
0.28125 0.09375 0
0.3125 0.09375 0
0.28125 0.0625 0
0.3125 0.0625 0
0.34375 0.09375 0
0.375 0.09375 0
0.34375 0.0625 0
0.375 0.0625 0
0.28125 0.03125 0
0.3125 0.03125 0
0.28125 0 0
0.3125 0 0
0.34375 0.03125 0
0.375 0.03125 0
0.34375 0 0
0.375 0 0
0.40625 0.09375 0
0.4375 0.09375 0
0.40625 0.0625 0
0.4375 0.0625 0
0.46875 0.09375 0
0.5 0.09375 0
0.46875 0.0625 0
0.5 0.0625 0
0.40625 0.03125 0
0.4375 0.03125 0
0.40625 0 0
0.4375 0 0
0.46875 0.03125 0
0.5 0.03125 0
0.46875 0 0
0.5 0 0
-0.5 -0.03125 0
-0.46875 -0.03125 0
-0.4375 -0.03125 0
-0.5 -0.0625 0
-0.46875 -0.0625 0
-0.4375 -0.0625 0
-0.40625 -0.03125 0
-0.375 -0.03125 0
-0.40625 -0.0625 0
-0.375 -0.0625 0
-0.5 -0.09375 0
-0.46875 -0.09375 0
-0.4375 -0.09375 0
-0.5 -0.125 0
-0.46875 -0.125 0
-0.4375 -0.125 0
-0.40625 -0.09375 0
-0.375 -0.09375 0
-0.40625 -0.125 0
-0.375 -0.125 0
-0.34375 -0.03125 0
-0.3125 -0.03125 0
-0.34375 -0.0625 0
-0.3125 -0.0625 0
-0.28125 -0.03125 0
-0.25 -0.03125 0
-0.28125 -0.0625 0
-0.25 -0.0625 0
-0.34375 -0.09375 0
-0.3125 -0.09375 0
-0.34375 -0.125 0
-0.3125 -0.125 0
-0.28125 -0.09375 0
-0.25 -0.09375 0
-0.28125 -0.125 0
-0.25 -0.125 0
-0.5 -0.15625 0
-0.46875 -0.15625 0
-0.4375 -0.15625 0
-0.5 -0.1875 0
-0.46875 -0.1875 0
-0.4375 -0.1875 0
-0.40625 -0.15625 0
-0.375 -0.15625 0
[...]
POINT_DATA 1089
SCALARS T float
LOOKUP_TABLE default
0
0
0
0
0
0
0
0
0
0
0
0
0
0
0
0
0
0
0
0
0
0
0
0
0
0
0
0
0
0
0
0
0
0
0
0
0
0
0
0
0
0
0
0
0
0
0
0
0
0
0
0
0
0
0
0
0
0
0
0
0
0
0
0
0
0
0
0
0
0
0
0
0
0
0
0
0
0
0
0
0
0
0
0
0
0
0
0
0
0
0
0
0
0
0
0
0
0
0
0
0
0
0
0
0
0
0
0
0
0
0
0
0
0
0
0
0
0
0
0
0
0
0
0
0
0
0
0
0
0
0
0
0
0
0
0
0
0
0
0
0
0
0
0
0
0
0
0
0
0
0
0
0
0
0
0
0
0
0
0
0
0
0
0
0
0
0
0
0
0
0
0
0
0
0
0
0
0
0
0
0
0
0
0
0
0
0
0
0
0
0
0
0
0
0
0
0
0
0
0
0
0
0
0
0
0
0
0
0
0
0
0
0
0
0
0
0
0
0
0
0
0
0.0565988
0
0.236879
0
0
0
0
0
0
0
0
0
0
0
0
0
0
0
4.12506e-05
0
0
0
0
0
0
0
0
0
0
0.000121659
8.04087e-05
0
0
0
0
0
0.0505083
0.0990422
0.397452
0.219982
0.401986
0.717884
0.901945
0.403065
0.844368
0.734303
0.997424
0.997901
1
1
1
0.479386
0.462161
0.979264
0.962081
0.350764
0.157266
0.850764
0.633546
1
1
1
1
1
0.976279
1
1
0
0
0
0
0
0
0
0
0
0
0
0
0
0
0
0
0
0
0
0
0
0
0
0
0
0
0
0
0
0
0
0
0
0
0
0
0
0
0
0
0
0
0
0
0
0
0
0
0
0
0
0
0
0
0
0
0
0.037816
0.00266971
0.245427
0.219658
0.421861
0.6746
0.921861
0.0419537
0.496895
0.0654446
0.565214
0.954942
1
0.99977
1
0
0
0
0
0
0
0
0
0
0
0
0
0
0
1.49162e-07
1.49162e-07
0
0
0
0
0
0
0
0
0
0
0
0
0
0
0
0
0
0
0
0
0
0
0
0
0.444662
0.275516
0.944662
0.762558
0.0708736
0
0.337176
0.0292598
1
0.987042
1
1
0.617564
0.130522
0.690408
0.190408
0
0
0
0
0
0
0
0
0
0
0
0
0
0
0
0
0
0
0
0
0
0
0
0
0
0
0
0
0
0
0
0
0.0261606
0.436342
0
0.166003
0.910181
1
0.51967
0.766135
0
0.00559184
0
0
0.109259
0.266135
0
0
0.0217898
0
0.301093
0.0530237
0
0
0
0
0.752411
0.29315
0.973108
0.610104
0.0170177
0
0.136996
0
0
0
0
0
0
0
0
0
0
0
0
0
0
0
0
0.00594709
1
0.959446
0.790596
0.610286
0.560939
0.101493
0.244505
0.0123469
0.290596
0.15084
0
0
0.0227118
0
0
0
0
0
0
0
0
0
0
0
0
0
0
0
0
0
0
0
0
0
0
0
0
0
0
0
0
0
0.150219
0.342135
0
0
0.30734
0.109648
0
0
0
0
0
0
0
0
0
0
0.000170996
0
0
0
0
0
0
0
0
0
0
0
0
0
0
0
0
0
0
0
0
0
0
0
0
0
0
0
0
0
0.00581575
0.430354
0.0278449
0.522102
0
0
0
0
0.0270941
0.520472
0.00506495
0.425221
0
0
0
0
0
0
0
0
0
0
0
0
0
0
0
0
0
0
0
0
0
0
0
0
0
0.228412
0
0.0516332
0
0
0
0
0
0
0
0
0.924538
1
0.994257
1
1
1
1
1
0.993377
1
0.920156
1
1
1
1
1
1
1
1
1
1
1
1
1
1
1
1
1
1
1
1
1
0.72475
0.996338
0.388279
0.832419
1
1
0.995773
1
0.0903073
0.377923
0
0.0418419
0.69699
0.88371
0.201217
0.38371
1
1
1
1
1
1
1
0.977551
0.965618
0.954013
0.465618
0.454013
0.848827
0.638231
0.348827
0.16068
0
0
0
0
0
0
0
0
0
0
0
0
0
0
0
0
0
0
0
0
0
0
0
0
0
0
0
0
0
0
0
0
0
0
0
0
0
0
0
0
0
0
0
0
0
0
0
0
0
0
0
0
0
0
0
0
0
0
0
0
0
0
0
0
0
0
0
0
0
0
0
0
0
0
0
0
0
0
0
0
0
0
0
0
0
0
0
0
0
0
0
0
0
0
0
0
0
0
0
0
0
0
0
0
0
0
0
0
0
0
0
0
0
0
0
0
0
0
0
0
0
0
0
0
0
0
0
0
0
0
0
0
0
0
0
0
1
0.812549
1
0.909367
0.312549
0
0.409367
0
1
0.911796
1
0.819339
0.411796
0
0.319339
0
0
0
0
0
0
0.112386
0
0.232332
0
0
0
0
0
0.156459
0
0.0305653
0.978448
0.619773
0.761107
0.300541
0.141325
0
0.0169849
0
0.307242
0.0551078
0.024583
0
0
0
0
0
0
0
0
0
0
0
0
0
0
0
0
0
0
0
0
0
0.506657
0.842135
0.732332
1
0.805168
0.411446
0.997828
0.625765
0.622122
0.965664
0.248859
0.490253
0.933365
0.51729
0.456298
0.194296
0.0541415
0
0.127937
0
0
0
0
0
0.0839246
0
0.0099581
0
0
0
0
0
0.00262948
0.0245889
0
0
0.0229322
0.000972697
0
0
0
0
0
0
0
0
0
0
0
0
0
0
0
0
0
0
0
0
0
0
0
0
0
0
0
0
0
0
0
0
0
0
0
0
0
0
0
0
0
0
0
0
0
0
0
0
0
0
0
0
0
0
0
0
0
0
0
0
0
0
0
0
0
0
0
0
0
0
0
0
0
0
0
0
0
0
0
0
0
0
0
0
0
0
0
0
0
0
0
0
0
0
0
0
0
0
0
0
0
0
0
0
0
0
0
0
0
0
0
0
0
0
0
0
0
0
0
0
0
0
0
0
0
0
0
0
0
0
0
0
0
0
0
0
0
0
0
0
0
0
0
0
0
0
0
0
0
0
0
0
0
0

SCALARS P float
LOOKUP_TABLE default
-0.0112348
-0.0112389
-0.0112398
-0.0112431
-0.011242
-0.0112456
-0.0112328
-0.0112373
-0.0112412
-0.0112434
-0.0112464
-0.0112425
-0.011245
-0.0112433
-0.011243
-0.0112266
-0.0112345
-0.0112411
-0.0112281
-0.0112383
-0.0112462
-0.011245
-0.011246
-0.011251
-0.0112527
-0.0112391
-0.0112412
-0.0112328
-0.0112344
-0.0112402
-0.0112346
-0.0112235
-0.0112244
-0.011211
-0.0112109
-0.011226
-0.0112142
-0.0112443
-0.0112395
-0.0112518
-0.011248
-0.0112317
-0.0112206
-0.0112409
-0.0112303
-0.0112285
-0.0112426
-0.0112526
-0.0112301
-0.0112525
-0.0112645
-0.011259
-0.011262
-0.0112716
-0.0112752
-0.0112679
-0.0112788
-0.0112845
-0.0113182
-0.0113096
-0.0113067
-0.0112888
-0.0112917
-0.0113076
-0.01131
-0.0112623
-0.0112596
-0.0112765
-0.0112752
-0.0112536
-0.0112436
-0.0112704
-0.0112615
-0.0112938
-0.0112943
-0.0113135
-0.0113171
-0.0112918
-0.0112851
-0.0113185
-0.0113161
-0.0111953
-0.0111937
-0.0111769
-0.0111733
-0.0111994
-0.0111821
-0.0111569
-0.0111508
-0.0111367
-0.0111281
-0.011163
-0.0111435
-0.0112062
-0.0111889
-0.0112158
-0.0111977
-0.0111694
-0.011149
-0.0111765
-0.0111535
-0.0111185
-0.0111079
-0.0111041
-0.0110924
-0.0111257
-0.0111111
-0.0110951
-0.0110838
-0.0110918
-0.0110821
-0.0111012
-0.0110967
-0.0111298
-0.0111136
-0.0111313
-0.011112
-0.011102
-0.0110956
-0.0110979
-0.01109
-0.0112289
-0.0112093
-0.0112466
-0.011225
-0.0111849
-0.0111573
-0.0111959
-0.011161
-0.0112707
-0.0112472
-0.0113041
-0.0112793
-0.0112116
-0.0111658
-0.0112352
-0.0111735
-0.0111298
-0.0111054
-0.0111253
-0.0110932
-0.0110871
-0.0110763
-0.0110695
-0.0110564
-0.0111174
-0.0110742
-0.0111056
-0.0110452
-0.0110432
-0.0110278
-0.0110035
-0.0109854
-0.0113573
-0.0113376
-0.0113285
-0.0113576
-0.0113449
-0.011339
-0.0113265
-0.0113289
-0.0113394
-0.011345
-0.0113535
-0.0113482
-0.0113461
-0.0113613
-0.0113543
-0.011352
-0.0113491
-0.0113582
-0.0113558
-0.0113677
-0.0113347
-0.0113431
-0.0113558
-0.0113721
-0.011351
-0.0113566
-0.0113908
-0.0114103
-0.0113749
-0.0114015
-0.0113908
-0.011431
-0.0114369
-0.0114819
-0.011491
-0.0115772
-0.011358
-0.0113537
-0.0113526
-0.0113633
-0.0113555
-0.0113512
-0.0113562
-0.011369
-0.0113508
-0.011359
-0.011372
-0.0113574
-0.0113466
-0.011388
-0.0113651
-0.0113431
-0.0113369
-0.0113328
-0.0113186
-0.0112958
-0.0113954
-0.0114488
-0.0113833
-0.0114448
-0.0115418
-0.0116997
-0.0115662
-0.0117987
-0.0113442
-0.0113961
-0.0112826
-0.0112989
-0.0115137
-0.00813908
-0.0113615
0.00307429
-0.011351
-0.0113285
-0.0114182
-0.0114032
-0.0112741
-0.011188
-0.0113371
-0.011216
-0.0115209
-0.0115347
-0.0116758
-0.0117523
-0.0114624
-0.0112817
-0.0116929
-0.0114288
-0.0110894
-0.0110036
-0.0110692
-0.0109445
-0.0109489
-0.0109357
-0.0108722
-0.0108714
-0.0110463
-0.0108535
-0.0110546
-0.0107514
-0.0107551
-0.0107851
-0.0106151
-0.0107084
-0.0119285
-0.00913854
-0.00604355
0.0117371
0.00093049
0.0118625
0.0308132
0.0416496
0.0125129
0.0387972
0.0325702
0.0477869
0.0479803
0.0480203
0.0480046
0.048007
0.016463
0.0154055
0.045903
0.0445118
0.00893247
-0.00213737
0.0378187
0.0252692
0.0478443
0.0476164
0.0479326
0.0478106
0.0473936
0.045827
0.0476741
0.0476199
-0.0110944
-0.0110868
-0.0111012
-0.0110958
-0.0110979
-0.0111035
-0.0111135
-0.0111092
-0.0111272
-0.0111236
-0.0111157
-0.0111288
-0.011095
-0.0110989
-0.0110885
-0.0110924
-0.0111097
-0.0111217
-0.0111047
-0.0111192
-0.0111506
-0.0111433
-0.0111663
-0.0111584
-0.0111575
-0.0111702
-0.0112015
-0.011182
-0.0112201
-0.0111973
-0.0112186
-0.0112405
-0.0111574
-0.0111682
-0.0111592
-0.0111488
-0.0112677
-0.0113046
-0.0112961
-0.011359
-0.0110719
-0.0110736
-0.0110515
-0.0110569
-0.0110798
-0.0110898
-0.0110648
-0.0111045
-0.0110239
-0.0110279
-0.0109818
-0.0109783
-0.0110329
-0.0110636
-0.0109684
-0.0109442
-0.0111027
-0.00656011
-0.010738
0.0184699
0.0149745
0.0387357
0.0696206
0.0985566
-0.00562102
0.0487734
-0.00229908
0.0570922
0.103022
0.10821
0.107996
0.108101
-0.0112177
-0.011205
-0.0112379
-0.01122
-0.0112187
-0.0112603
-0.0112373
-0.0112248
-0.0112246
-0.0112251
-0.0112595
-0.0112246
-0.0112153
-0.0113015
-0.0111854
-0.0113829
-0.0112999
-0.0112043
-0.0113758
-0.0111561
-0.0112219
-0.0112262
-0.0112261
-0.0112314
-0.0112212
-0.0112237
-0.0112286
-0.0112346
-0.0112348
-0.0112396
-0.0112255
-0.0112328
-0.0112059
-0.0112082
-0.0111872
-0.011195
-0.0112146
-0.0112266
-0.0112115
-0.0112281
0.0411467
0.0205442
0.100685
0.07839
-0.00334567
-0.0110875
0.0280752
-0.00764019
0.108059
0.106361
0.108201
0.108459
0.0616399
0.003768
0.0705731
0.0104559
-0.0111713
-0.0111803
-0.010954
-0.0110989
-0.0112078
-0.0112285
-0.0111904
-0.0112301
-0.0111124
-0.0111992
-0.011542
-0.0113989
-0.0112515
-0.0112679
-0.0113457
-0.0113182
-0.0109458
-0.0109526
-0.0109085
-0.0109325
-0.0109492
-0.0109239
-0.0109432
-0.0109383
-0.0108761
-0.0109265
-0.0108902
-0.0109649
-0.0109509
-0.0109589
-0.0109784
-0.0109792
-0.00733804
0.0419785
-0.0109187
0.00949669
0.0979208
0.108079
0.0519782
0.0808157
-0.0109659
-0.0101877
-0.0109882
-0.0110009
0.00252559
0.0212672
-0.0110553
-0.0110702
-0.00985236
-0.0110807
0.00596485
-0.00836321
-0.0110423
-0.0110163
-0.0111755
-0.0110702
0.0324997
0.00561399
0.0460017
0.0245642
-0.0102631
-0.0110886
-0.00315514
-0.0110416
-0.0110165
-0.0110343
-0.0110353
-0.0110447
-0.0110826
-0.0111317
-0.0110785
-0.0111544
-0.0110337
-0.0110441
-0.0109966
-0.0110137
-0.0110672
-0.0111695
-0.0110271
-0.0100761
0.108217
0.103392
0.0833721
0.0614756
0.0551992
0.000135135
0.0175359
-0.0100881
0.0237399
0.00676954
-0.0111245
-0.0111558
-0.0086631
-0.0113811
-0.0112749
-0.0113847
-0.0116215
-0.0114672
-0.0114535
-0.0114132
-0.0113983
-0.0113573
-0.0113782
-0.0113576
-0.0113444
-0.0113719
-0.0113624
-0.0113843
-0.0113571
-0.0113535
-0.011366
-0.0113613
-0.0112123
-0.0112504
-0.0112625
-0.0113453
-0.011291
-0.0113158
-0.0113397
-0.0112798
-0.0113163
-0.0114538
0.0156531
0.0497675
-0.0113964
-0.0112556
0.0427162
0.00766672
-0.0113219
-0.0113564
-0.0113169
-0.0113571
-0.0113529
-0.011358
-0.011356
-0.0113633
-0.0113327
-0.0113743
-0.0111959
-0.0113731
-0.0113668
-0.011372
-0.0113833
-0.011388
-0.0114239
-0.0113816
-0.0113434
-0.0114752
-0.0114079
-0.0113522
-0.0113035
-0.0112629
-0.0113021
-0.0112538
-0.0114837
-0.0114165
-0.0113585
-0.0114521
-0.0114033
-0.0113584
-0.0113083
-0.0112622
-0.0113187
-0.0112838
-0.0112269
-0.0112072
-0.011213
-0.0111867
-0.0106526
0.0147813
-0.00892559
0.0202826
-0.011224
-0.0111989
-0.0112558
-0.0112409
-0.008989
0.0201862
-0.0107429
0.0144853
-0.011422
-0.01139
-0.0113595
-0.0113909
-0.0113735
-0.0113569
-0.0113343
-0.0113162
-0.0113459
-0.0113434
-0.0113621
-0.0113558
-0.0113498
-0.011337
-0.0113376
-0.0113377
-0.0113484
-0.0113552
-0.0113407
-0.0113492
-0.0113111
-0.0113295
-0.0113595
-0.0114061
-0.0113978
0.00261023
-0.0115222
-0.00839143
-0.0113785
-0.0114265
-0.0113684
-0.0114014
-0.0115289
-0.011713
-0.0114616
-0.0115542
0.0437137
0.0478486
0.0475159
0.0478651
0.0479748
0.0480222
0.0479766
0.0480291
0.0474751
0.0478544
0.0434949
0.0478287
0.0479576
0.0480116
0.047923
0.0479715
0.0480029
0.0479442
0.0480333
0.0480109
0.0478681
0.0478244
0.0479791
0.047969
0.0480243
0.0480156
0.0479758
0.0479595
0.0480046
0.048016
0.0479484
0.0479729
0.0321094
0.0477134
0.0118662
0.0382006
0.0478947
0.0479051
0.0476822
0.0478323
-0.00626822
0.011025
-0.0116749
-0.00912741
0.0298935
0.0407541
0.000480605
0.0113041
0.0478757
0.0478286
0.0477308
0.0476185
0.047803
0.0478588
0.0475451
0.0462459
0.0453278
0.044423
0.0160934
0.0153535
0.0382002
0.0259453
0.00918107
-0.00183961
-0.0113159
-0.0113203
-0.0113237
-0.0112975
-0.0113035
-0.0113083
-0.0113287
-0.0113368
-0.0113131
-0.0113187
-0.0112824
-0.0112887
-0.0112935
-0.0112697
-0.0112756
-0.0112798
-0.0112974
-0.0113008
-0.0112827
-0.0112841
-0.0113509
-0.0113714
-0.0113266
-0.0113359
-0.0114017
-0.0114381
-0.0113461
-0.0113534
-0.011304
-0.0113059
-0.0112839
-0.0112812
-0.0113046
-0.011297
-0.0112741
-0.0112606
-0.0112594
-0.0112646
-0.0112681
-0.0112511
-0.0112555
-0.0112584
-0.01127
-0.0112699
-0.0112596
-0.0112586
-0.0112446
-0.0112484
-0.0112509
-0.0112396
-0.0112431
-0.0112456
-0.0112517
-0.0112504
-0.0112464
-0.011245
-0.0112677
-0.0112623
-0.0112552
-0.0112487
-0.0112526
-0.0112371
-0.011238
-0.0112226
-0.0112465
-0.0112396
-0.0112412
-0.0112344
-0.0112291
-0.0112145
-0.0112244
-0.0112109
-0.0114663
-0.0114261
-0.0113464
-0.0112998
-0.0112831
-0.0110646
-0.0111924
-0.0110394
-0.0112746
-0.0112275
-0.0112356
-0.0111956
-0.0111482
-0.0110492
-0.011137
-0.0110678
-0.0108232
-0.0106802
-0.010881
-0.0107874
-0.010697
-0.0108732
-0.0107949
-0.0108932
-0.0109533
-0.0108933
-0.0110033
-0.0109617
-0.0108895
-0.010937
-0.0109551
-0.0109799
-0.011213
-0.0111795
-0.0112009
-0.0111731
-0.011136
-0.0110878
-0.0111395
-0.0111038
-0.0111952
-0.0111718
-0.0111937
-0.0111733
-0.0111449
-0.0111174
-0.0111508
-0.0111281
-0.0110441
-0.0110142
-0.011072
-0.0110495
-0.0110054
-0.0110162
-0.0110408
-0.011045
-0.0110929
-0.0110749
-0.0111079
-0.0110924
-0.0110661
-0.0110664
-0.0110838
-0.0110821
0.047826
0.0367456
0.0479779
0.0426657
0.00730788
-0.0110109
0.0131318
-0.0110343
0.0480514
0.0429083
0.0480532
0.0373809
0.0132726
-0.0111132
0.00765183
-0.0112317
-0.0109489
-0.0109344
-0.0109298
-0.0108398
-0.0108755
0.00960736
-0.0106743
0.0318325
-0.0109671
-0.0108127
-0.0110505
-0.0108738
-0.0106469
0.0182393
-0.0107511
-0.00477327
0.0466984
0.0253138
0.0334728
0.00610983
-0.00316159
-0.0113366
-0.0106117
-0.0113528
0.0065015
-0.0083448
-0.00984112
-0.0112985
-0.0114377
-0.0112797
-0.011269
-0.0112085
-0.0111352
-0.0109722
-0.0111781
-0.0110486
-0.0108747
-0.0107122
-0.0109763
-0.0109136
-0.0111736
-0.0110895
-0.0111584
-0.0111131
-0.0110417
-0.0110138
-0.0110874
-0.0110797
0.0807297
0.141
0.122354
0.170808
0.13376
0.0618329
0.171046
0.101574
0.102907
0.164879
0.0351963
0.0789052
0.159136
0.0824557
0.0723125
0.0238555
-0.00243018
-0.0115195
0.010174
-0.011741
-0.0114593
-0.0114239
-0.0115828
-0.0114752
0.00293371
-0.0117258
-0.0099512
-0.0115915
-0.0115997
-0.0114837
-0.0115282
-0.0114521
-0.010236
-0.0061997
-0.01097
-0.011111
-0.00670277
-0.0112468
-0.0112038
-0.0113469
-0.0110472
-0.011137
-0.0111009
-0.011152
-0.0112076
-0.0112909
-0.0112016
-0.0112587
-0.0115234
-0.0114859
-0.0114134
-0.0114141
-0.011465
-0.011422
-0.0114114
-0.0113909
-0.011342
-0.0113591
-0.0113003
-0.0113216
-0.0113673
-0.0113621
-0.0113342
-0.011337
-0.0110629
-0.0111442
-0.0110079
-0.0110765
-0.0111653
-0.0111556
-0.0111122
-0.0111246
-0.0110024
-0.0110532
-0.0110185
-0.011054
-0.0110879
-0.0111079
-0.0110827
-0.0111035
-0.01114
-0.0111212
-0.0111278
-0.0111258
-0.0111114
-0.0111132
-0.0111271
-0.0111349
-0.0111203
-0.0111277
-0.0111195
-0.0111316
-0.0111359
-0.0111471
-0.0111438
-0.0111567
-0.0110384
-0.0110627
-0.0110581
-0.0110751
-0.0110857
-0.011105
-0.0110934
-0.0111108
-0.0110742
-0.0110863
-0.0110868
-0.0110958
-0.0111015
-0.0111171
-0.0111092
-0.0111236
-0.0111222
-0.0111365
-0.0111282
-0.0111433
-0.0111511
-0.0111649
-0.0111597
-0.0111738
-0.0111352
-0.0111506
-0.0111433
-0.0111584
-0.0111699
-0.0111846
-0.011182
-0.0111973
-0.0111306
-0.0111662
-0.0111503
-0.0111756
-0.0112034
-0.0112428
-0.0112032
-0.011232
-0.0111621
-0.0111825
-0.0111712
-0.0111882
-0.0112044
-0.0112265
-0.0112055
-0.0112228
-0.0112747
-0.0112953
-0.0112571
-0.0112755
-0.011309
-0.0113159
-0.0112889
-0.0112975
-0.0112461
-0.0112619
-0.0112382
-0.0112514
-0.0112739
-0.0112824
-0.0112617
-0.0112697
-0.0111788
-0.0111938
-0.0111868
-0.0112003
-0.0112079
-0.0112214
-0.0112113
-0.0112214
-0.0111959
-0.0112089
-0.011205
-0.01122
-0.0112167
-0.0112226
-0.0112248
-0.0112251
-0.0112332
-0.011244
-0.0112297
-0.0112385
-0.0112525
-0.0112594
-0.0112451
-0.0112511
-0.0112274
-0.0112343
-0.0112262
-0.0112314
-0.0112392
-0.0112446
-0.0112346
-0.0112398

SCALARS U float
LOOKUP_TABLE default
0.0200402
0.0199263
0.0197093
0.0196176
0.0198212
0.0195345
0.0203669
0.0202166
0.02008
0.0197253
0.0194535
0.0196406
0.0193767
0.0199574
0.0198503
0.020655
0.0204664
0.0202951
0.0208421
0.0206343
0.0204391
0.0201393
0.0200004
0.0202534
0.0200785
0.0195708
0.0193083
0.0195204
0.0192555
0.0197621
0.0196956
0.0194953
0.019228
0.0195025
0.0192381
0.0196551
0.0196448
0.0198815
0.0197854
0.01992
0.0197823
0.0197162
0.0196781
0.0196721
0.0195966
0.0209435
0.0207301
0.0205151
0.0208984
0.0207213
0.0205054
0.0202971
0.0200781
0.0202586
0.0199878
0.0208311
0.0206829
0.0204534
0.0208376
0.0206703
0.0203933
0.0201607
0.0198167
0.0200266
0.0195821
0.0198673
0.0196722
0.019709
0.0194352
0.0195046
0.0193783
0.019187
0.0189882
0.0194436
0.0190601
0.0190839
0.0185525
0.0186965
0.0183889
0.018025
0.0175474
0.0195497
0.0193007
0.0196427
0.0194287
0.019669
0.0197309
0.0197842
0.019631
0.0199687
0.0199037
0.0198303
0.0199615
0.0196756
0.0197125
0.0195644
0.019584
0.0197888
0.0198994
0.0196584
0.0197846
0.0201793
0.020223
0.0203912
0.02055
0.0201112
0.0202607
0.0205769
0.0208403
0.0207141
0.0210576
0.02039
0.0204831
0.0200313
0.0201661
0.0199464
0.02012
0.0202844
0.0203698
0.0202807
0.0204061
0.0193104
0.0193194
0.0188708
0.0188722
0.0194161
0.0196012
0.0190176
0.0193167
0.0181924
0.0181756
0.0172072
0.0171283
0.0183937
0.0188767
0.0174283
0.0181868
0.0198509
0.0201277
0.0197311
0.020195
0.0203927
0.0206108
0.0206425
0.0210202
0.0195591
0.0203202
0.0192931
0.020517
0.021037
0.0216154
0.0216202
0.0224168
0.020851
0.0206605
0.0203279
0.0210029
0.0207241
0.020308
0.0198755
0.0193146
0.0197606
0.0190794
0.0211302
0.0207891
0.0203231
0.0211042
0.0208147
0.0203892
0.0197183
0.0189511
0.0198113
0.0190365
0.0186673
0.0179476
0.0182702
0.0173175
0.0171876
0.0164297
0.0162164
0.0149719
0.0179929
0.0167638
0.0179849
0.0164713
0.0151682
0.0131325
0.014259
0.011207
0.0210025
0.0208381
0.0205456
0.0208658
0.0208926
0.0208298
0.0201036
0.0194471
0.0206583
0.0203154
0.020711
0.0209729
0.0212204
0.0205094
0.0210304
0.0216287
0.0214543
0.0216526
0.0223455
0.0232391
0.0184358
0.0167787
0.0196353
0.018346
0.0141728
0.0106719
0.0163516
0.0142629
0.0217197
0.0215866
0.0243749
0.025951
0.0215188
0.0223988
0.0283359
0.0317225
0.015807
0.0155434
0.0137873
0.0130818
0.0158948
0.0170657
0.0134001
0.0152036
0.0109904
0.00950253
0.00793288
0.00583061
0.00970109
0.0124264
0.00638006
0.0101921
0.0188707
0.0208648
0.0181791
0.0214793
0.0225865
0.0236719
0.0242297
0.0257474
0.0171091
0.0223061
0.0161573
0.0226438
0.0266226
0.0288898
0.0283762
0.0318332
0.00749074
0.00670351
0.0137093
0.0159897
0.00906132
0.0132784
0.0195945
0.0215068
0.0249895
0.0283747
0.0351306
0.036454
0.0298977
0.0276603
0.0343464
0.0292717
0.0177751
0.0220661
0.0210422
0.0197254
0.0264846
0.0304728
0.0194983
0.0217033
0.0226145
0.016938
0.0227641
0.0160524
0.012411
0.0109361
0.00985244
0.00525665
0.0207894
0.0211811
0.0208068
0.0212129
0.0205293
0.0205325
0.0207735
0.0211648
0.0207309
0.021072
0.0204957
0.0204726
0.0204107
0.0204075
0.0204825
0.0205059
0.0203579
0.0203188
0.0204589
0.0203656
0.0206889
0.0209507
0.0207282
0.0208457
0.0204655
0.0206451
0.020747
0.0207234
0.0205921
0.0205238
0.0208014
0.0206215
0.0202752
0.0205899
0.0201607
0.0203444
0.0208437
0.0204568
0.0204608
0.0199213
0.0207709
0.0208613
0.0213274
0.0215707
0.0208701
0.020775
0.0218324
0.0221281
0.0220513
0.0223924
0.0228808
0.023099
0.0227757
0.0232681
0.0232007
0.0232555
0.0205912
0.0203344
0.0227975
0.0229215
0.0201238
0.0203409
0.0222646
0.0223271
0.0240634
0.024274
0.0230129
0.0223524
0.0236693
0.0232587
0.022248
0.0225871
0.0204287
0.0203243
0.020356
0.0201758
0.0204641
0.0204977
0.0203864
0.0200981
0.0203986
0.0200317
0.0206845
0.0208027
0.0202719
0.0205206
0.0200765
0.0208627
0.0209351
0.0211991
0.0214137
0.0216239
0.0203457
0.0199533
0.0202659
0.0198759
0.0207652
0.0206675
0.0201525
0.0197877
0.0200402
0.0196973
0.0205161
0.0203669
0.021172
0.0210389
0.0215018
0.0212766
0.0208433
0.020655
0.021049
0.0208421
0.0210339
0.0215183
0.0222868
0.0217879
0.0216094
0.0216906
0.0216497
0.0216009
0.0224948
0.0215638
0.0223317
0.02127
0.0211474
0.0210007
0.0200466
0.0200313
0.0216022
0.021351
0.0213372
0.0211153
0.0211471
0.0209435
0.0210372
0.0208984
0.0208793
0.0208496
0.0205835
0.0207914
0.0208984
0.0208311
0.0208898
0.0208376
0.0240781
0.0239906
0.0259642
0.0252952
0.0236522
0.0231935
0.0242447
0.023138
0.0288839
0.0273704
0.0320951
0.0299091
0.0252931
0.0233595
0.0267266
0.0238662
0.0225166
0.0216648
0.022202
0.0214255
0.0215141
0.0219386
0.0210899
0.0213931
0.0219201
0.0210895
0.0219401
0.0210365
0.0207708
0.0207922
0.0206849
0.0202143
0.0322713
0.0308897
0.0252293
0.0267011
0.0273067
0.0236946
0.0248454
0.0218335
0.013213
0.0166216
0.00383821
0.00595352
0.0180273
0.0174995
0.00935068
0.0117871