# vtk DataFile Version 2.0
Gerris simulation version 1.3.2 (131206-155120)
ASCII
DATASET UNSTRUCTURED_GRID

POINTS 1089 float
-0.5 0.46875 0
-0.46875 0.46875 0
-0.5 0.5 0
-0.46875 0.5 0
-0.4375 0.46875 0
-0.4375 0.5 0
-0.5 0.4375 0
-0.46875 0.4375 0
-0.4375 0.4375 0
-0.40625 0.46875 0
-0.40625 0.5 0
-0.375 0.46875 0
-0.375 0.5 0
-0.40625 0.4375 0
-0.375 0.4375 0
-0.5 0.40625 0
-0.46875 0.40625 0
-0.4375 0.40625 0
-0.5 0.375 0
-0.46875 0.375 0
-0.4375 0.375 0
-0.40625 0.40625 0
-0.375 0.40625 0
-0.40625 0.375 0
-0.375 0.375 0
-0.34375 0.46875 0
-0.34375 0.5 0
-0.3125 0.46875 0
-0.3125 0.5 0
-0.34375 0.4375 0
-0.3125 0.4375 0
-0.28125 0.46875 0
-0.28125 0.5 0
-0.25 0.46875 0
-0.25 0.5 0
-0.28125 0.4375 0
-0.25 0.4375 0
-0.34375 0.40625 0
-0.3125 0.40625 0
-0.34375 0.375 0
-0.3125 0.375 0
-0.28125 0.40625 0
-0.25 0.40625 0
-0.28125 0.375 0
-0.25 0.375 0
-0.5 0.34375 0
-0.46875 0.34375 0
-0.4375 0.34375 0
-0.5 0.3125 0
-0.46875 0.3125 0
-0.4375 0.3125 0
-0.40625 0.34375 0
-0.375 0.34375 0
-0.40625 0.3125 0
-0.375 0.3125 0
-0.5 0.28125 0
-0.46875 0.28125 0
-0.4375 0.28125 0
-0.5 0.25 0
-0.46875 0.25 0
-0.4375 0.25 0
-0.40625 0.28125 0
-0.375 0.28125 0
-0.40625 0.25 0
-0.375 0.25 0
-0.34375 0.34375 0
-0.3125 0.34375 0
-0.34375 0.3125 0
-0.3125 0.3125 0
-0.28125 0.34375 0
-0.25 0.34375 0
-0.28125 0.3125 0
-0.25 0.3125 0
-0.34375 0.28125 0
-0.3125 0.28125 0
-0.34375 0.25 0
-0.3125 0.25 0
-0.28125 0.28125 0
-0.25 0.28125 0
-0.28125 0.25 0
-0.25 0.25 0
-0.21875 0.46875 0
-0.21875 0.5 0
-0.1875 0.46875 0
-0.1875 0.5 0
-0.21875 0.4375 0
-0.1875 0.4375 0
-0.15625 0.46875 0
-0.15625 0.5 0
-0.125 0.46875 0
-0.125 0.5 0
-0.15625 0.4375 0
-0.125 0.4375 0
-0.21875 0.40625 0
-0.1875 0.40625 0
-0.21875 0.375 0
-0.1875 0.375 0
-0.15625 0.40625 0
-0.125 0.40625 0
-0.15625 0.375 0
-0.125 0.375 0
-0.09375 0.46875 0
-0.09375 0.5 0
-0.0625 0.46875 0
-0.0625 0.5 0
-0.09375 0.4375 0
-0.0625 0.4375 0
-0.03125 0.46875 0
-0.03125 0.5 0
0 0.46875 0
0 0.5 0
-0.03125 0.4375 0
0 0.4375 0
-0.09375 0.40625 0
-0.0625 0.40625 0
-0.09375 0.375 0
-0.0625 0.375 0
-0.03125 0.40625 0
0 0.40625 0
-0.03125 0.375 0
0 0.375 0
-0.21875 0.34375 0
-0.1875 0.34375 0
-0.21875 0.3125 0
-0.1875 0.3125 0
-0.15625 0.34375 0
-0.125 0.34375 0
-0.15625 0.3125 0
-0.125 0.3125 0
-0.21875 0.28125 0
-0.1875 0.28125 0
-0.21875 0.25 0
-0.1875 0.25 0
-0.15625 0.28125 0
-0.125 0.28125 0
-0.15625 0.25 0
-0.125 0.25 0
-0.09375 0.34375 0
-0.0625 0.34375 0
-0.09375 0.3125 0
-0.0625 0.3125 0
-0.03125 0.34375 0
0 0.34375 0
-0.03125 0.3125 0
0 0.3125 0
-0.09375 0.28125 0
-0.0625 0.28125 0
-0.09375 0.25 0
-0.0625 0.25 0
-0.03125 0.28125 0
0 0.28125 0
-0.03125 0.25 0
0 0.25 0
-0.5 0.21875 0
-0.46875 0.21875 0
-0.4375 0.21875 0
-0.5 0.1875 0
-0.46875 0.1875 0
-0.4375 0.1875 0
-0.40625 0.21875 0
-0.375 0.21875 0
-0.40625 0.1875 0
-0.375 0.1875 0
-0.5 0.15625 0
-0.46875 0.15625 0
-0.4375 0.15625 0
-0.5 0.125 0
-0.46875 0.125 0
-0.4375 0.125 0
-0.40625 0.15625 0
-0.375 0.15625 0
-0.40625 0.125 0
-0.375 0.125 0
-0.34375 0.21875 0
-0.3125 0.21875 0
-0.34375 0.1875 0
-0.3125 0.1875 0
-0.28125 0.21875 0
-0.25 0.21875 0
-0.28125 0.1875 0
-0.25 0.1875 0
-0.34375 0.15625 0
-0.3125 0.15625 0
-0.34375 0.125 0
-0.3125 0.125 0
-0.28125 0.15625 0
-0.25 0.15625 0
-0.28125 0.125 0
-0.25 0.125 0
-0.5 0.09375 0
-0.46875 0.09375 0
-0.4375 0.09375 0
-0.5 0.0625 0
-0.46875 0.0625 0
-0.4375 0.0625 0
-0.40625 0.09375 0
-0.375 0.09375 0
-0.40625 0.0625 0
-0.375 0.0625 0
-0.5 0.03125 0
-0.46875 0.03125 0
-0.4375 0.03125 0
-0.5 0 0
-0.46875 0 0
-0.4375 0 0
-0.40625 0.03125 0
-0.375 0.03125 0
-0.40625 0 0
-0.375 0 0
-0.34375 0.09375 0
-0.3125 0.09375 0
-0.34375 0.0625 0
-0.3125 0.0625 0
-0.28125 0.09375 0
-0.25 0.09375 0
-0.28125 0.0625 0
-0.25 0.0625 0
-0.34375 0.03125 0
-0.3125 0.03125 0
-0.34375 0 0
-0.3125 0 0
-0.28125 0.03125 0
-0.25 0.03125 0
-0.28125 0 0
-0.25 0 0
-0.21875 0.21875 0
-0.1875 0.21875 0
-0.21875 0.1875 0
-0.1875 0.1875 0
-0.15625 0.21875 0
-0.125 0.21875 0
-0.15625 0.1875 0
-0.125 0.1875 0
-0.21875 0.15625 0
-0.1875 0.15625 0
-0.21875 0.125 0
-0.1875 0.125 0
-0.15625 0.15625 0
-0.125 0.15625 0
-0.15625 0.125 0
-0.125 0.125 0
-0.09375 0.21875 0
-0.0625 0.21875 0
-0.09375 0.1875 0
-0.0625 0.1875 0
-0.03125 0.21875 0
0 0.21875 0
-0.03125 0.1875 0
0 0.1875 0
-0.09375 0.15625 0
-0.0625 0.15625 0
-0.09375 0.125 0
-0.0625 0.125 0
-0.03125 0.15625 0
0 0.15625 0
-0.03125 0.125 0
0 0.125 0
-0.21875 0.09375 0
-0.1875 0.09375 0
-0.21875 0.0625 0
-0.1875 0.0625 0
-0.15625 0.09375 0
-0.125 0.09375 0
-0.15625 0.0625 0
-0.125 0.0625 0
-0.21875 0.03125 0
-0.1875 0.03125 0
-0.21875 0 0
-0.1875 0 0
-0.15625 0.03125 0
-0.125 0.03125 0
-0.15625 0 0
-0.125 0 0
-0.09375 0.09375 0
-0.0625 0.09375 0
-0.09375 0.0625 0
-0.0625 0.0625 0
-0.03125 0.09375 0
0 0.09375 0
-0.03125 0.0625 0
0 0.0625 0
-0.09375 0.03125 0
-0.0625 0.03125 0
-0.09375 0 0
-0.0625 0 0
-0.03125 0.03125 0
0 0.03125 0
-0.03125 0 0
0 0 0
0.03125 0.46875 0
0.03125 0.5 0
0.0625 0.46875 0
0.0625 0.5 0
0.03125 0.4375 0
0.0625 0.4375 0
0.09375 0.46875 0
0.09375 0.5 0
0.125 0.46875 0
0.125 0.5 0
0.09375 0.4375 0
0.125 0.4375 0
0.03125 0.40625 0
0.0625 0.40625 0
0.03125 0.375 0
0.0625 0.375 0
0.09375 0.40625 0
0.125 0.40625 0
0.09375 0.375 0
0.125 0.375 0
0.15625 0.46875 0
0.15625 0.5 0
0.1875 0.46875 0
0.1875 0.5 0
0.15625 0.4375 0
0.1875 0.4375 0
0.21875 0.46875 0
0.21875 0.5 0
0.25 0.46875 0
0.25 0.5 0
0.21875 0.4375 0
0.25 0.4375 0
0.15625 0.40625 0
0.1875 0.40625 0
0.15625 0.375 0
0.1875 0.375 0
0.21875 0.40625 0
0.25 0.40625 0
0.21875 0.375 0
0.25 0.375 0
0.03125 0.34375 0
0.0625 0.34375 0
0.03125 0.3125 0
0.0625 0.3125 0
0.09375 0.34375 0
0.125 0.34375 0
0.09375 0.3125 0
0.125 0.3125 0
0.03125 0.28125 0
0.0625 0.28125 0
0.03125 0.25 0
0.0625 0.25 0
0.09375 0.28125 0
0.125 0.28125 0
0.09375 0.25 0
0.125 0.25 0
0.15625 0.34375 0
0.1875 0.34375 0
0.15625 0.3125 0
0.1875 0.3125 0
0.21875 0.34375 0
0.25 0.34375 0
0.21875 0.3125 0
0.25 0.3125 0
0.15625 0.28125 0
0.1875 0.28125 0
0.15625 0.25 0
0.1875 0.25 0
0.21875 0.28125 0
0.25 0.28125 0
0.21875 0.25 0
0.25 0.25 0
0.28125 0.46875 0
0.28125 0.5 0
0.3125 0.46875 0
0.3125 0.5 0
0.28125 0.4375 0
0.3125 0.4375 0
0.34375 0.46875 0
0.34375 0.5 0
0.375 0.46875 0
0.375 0.5 0
0.34375 0.4375 0
0.375 0.4375 0
0.28125 0.40625 0
0.3125 0.40625 0
0.28125 0.375 0
0.3125 0.375 0
0.34375 0.40625 0
0.375 0.40625 0
0.34375 0.375 0
0.375 0.375 0
0.40625 0.46875 0
0.40625 0.5 0
0.4375 0.46875 0
0.4375 0.5 0
0.40625 0.4375 0
0.4375 0.4375 0
0.46875 0.46875 0
0.46875 0.5 0
0.5 0.46875 0
0.5 0.5 0
0.46875 0.4375 0
0.5 0.4375 0
0.40625 0.40625 0
0.4375 0.40625 0
0.40625 0.375 0
0.4375 0.375 0
0.46875 0.40625 0
0.5 0.40625 0
0.46875 0.375 0
0.5 0.375 0
0.28125 0.34375 0
0.3125 0.34375 0
0.28125 0.3125 0
0.3125 0.3125 0
0.34375 0.34375 0
0.375 0.34375 0
0.34375 0.3125 0
0.375 0.3125 0
0.28125 0.28125 0
0.3125 0.28125 0
0.28125 0.25 0
0.3125 0.25 0
0.34375 0.28125 0
0.375 0.28125 0
0.34375 0.25 0
0.375 0.25 0
0.40625 0.34375 0
0.4375 0.34375 0
0.40625 0.3125 0
0.4375 0.3125 0
0.46875 0.34375 0
0.5 0.34375 0
0.46875 0.3125 0
0.5 0.3125 0
0.40625 0.28125 0
0.4375 0.28125 0
0.40625 0.25 0
0.4375 0.25 0
0.46875 0.28125 0
0.5 0.28125 0
0.46875 0.25 0
0.5 0.25 0
0.03125 0.21875 0
0.0625 0.21875 0
0.03125 0.1875 0
0.0625 0.1875 0
0.09375 0.21875 0
0.125 0.21875 0
0.09375 0.1875 0
0.125 0.1875 0
0.03125 0.15625 0
0.0625 0.15625 0
0.03125 0.125 0
0.0625 0.125 0
0.09375 0.15625 0
0.125 0.15625 0
0.09375 0.125 0
0.125 0.125 0
0.15625 0.21875 0
0.1875 0.21875 0
0.15625 0.1875 0
0.1875 0.1875 0
0.21875 0.21875 0
0.25 0.21875 0
0.21875 0.1875 0
0.25 0.1875 0
0.15625 0.15625 0
0.1875 0.15625 0
0.15625 0.125 0
0.1875 0.125 0
0.21875 0.15625 0
0.25 0.15625 0
0.21875 0.125 0
0.25 0.125 0
0.03125 0.09375 0
0.0625 0.09375 0
0.03125 0.0625 0
0.0625 0.0625 0
0.09375 0.09375 0
0.125 0.09375 0
0.09375 0.0625 0
0.125 0.0625 0
0.03125 0.03125 0
0.0625 0.03125 0
0.03125 0 0
0.0625 0 0
0.09375 0.03125 0
0.125 0.03125 0
0.09375 0 0
0.125 0 0
0.15625 0.09375 0
0.1875 0.09375 0
0.15625 0.0625 0
0.1875 0.0625 0
0.21875 0.09375 0
0.25 0.09375 0
0.21875 0.0625 0
0.25 0.0625 0
0.15625 0.03125 0
0.1875 0.03125 0
0.15625 0 0
0.1875 0 0
0.21875 0.03125 0
0.25 0.03125 0
0.21875 0 0
0.25 0 0
0.28125 0.21875 0
0.3125 0.21875 0
0.28125 0.1875 0
0.3125 0.1875 0
0.34375 0.21875 0
0.375 0.21875 0
0.34375 0.1875 0
0.375 0.1875 0
0.28125 0.15625 0
0.3125 0.15625 0
0.28125 0.125 0
0.3125 0.125 0
0.34375 0.15625 0
0.375 0.15625 0
0.34375 0.125 0
0.375 0.125 0
0.40625 0.21875 0
0.4375 0.21875 0
0.40625 0.1875 0
0.4375 0.1875 0
0.46875 0.21875 0
0.5 0.21875 0
0.46875 0.1875 0
0.5 0.1875 0
0.40625 0.15625 0
0.4375 0.15625 0
0.40625 0.125 0
0.4375 0.125 0
0.46875 0.15625 0
0.5 0.15625 0
0.46875 0.125 0
0.5 0.125 0
0.28125 0.09375 0
0.3125 0.09375 0
0.28125 0.0625 0
0.3125 0.0625 0
0.34375 0.09375 0
0.375 0.09375 0
0.34375 0.0625 0
0.375 0.0625 0
0.28125 0.03125 0
0.3125 0.03125 0
0.28125 0 0
0.3125 0 0
0.34375 0.03125 0
0.375 0.03125 0
0.34375 0 0
0.375 0 0
0.40625 0.09375 0
0.4375 0.09375 0
0.40625 0.0625 0
0.4375 0.0625 0
0.46875 0.09375 0
0.5 0.09375 0
0.46875 0.0625 0
0.5 0.0625 0
0.40625 0.03125 0
0.4375 0.03125 0
0.40625 0 0
0.4375 0 0
0.46875 0.03125 0
0.5 0.03125 0
0.46875 0 0
0.5 0 0
-0.5 -0.03125 0
-0.46875 -0.03125 0
-0.4375 -0.03125 0
-0.5 -0.0625 0
-0.46875 -0.0625 0
-0.4375 -0.0625 0
-0.40625 -0.03125 0
-0.375 -0.03125 0
-0.40625 -0.0625 0
-0.375 -0.0625 0
-0.5 -0.09375 0
-0.46875 -0.09375 0
-0.4375 -0.09375 0
-0.5 -0.125 0
-0.46875 -0.125 0
-0.4375 -0.125 0
-0.40625 -0.09375 0
-0.375 -0.09375 0
-0.40625 -0.125 0
-0.375 -0.125 0
-0.34375 -0.03125 0
-0.3125 -0.03125 0
-0.34375 -0.0625 0
-0.3125 -0.0625 0
-0.28125 -0.03125 0
-0.25 -0.03125 0
-0.28125 -0.0625 0
-0.25 -0.0625 0
-0.34375 -0.09375 0
-0.3125 -0.09375 0
-0.34375 -0.125 0
-0.3125 -0.125 0
-0.28125 -0.09375 0
-0.25 -0.09375 0
-0.28125 -0.125 0
-0.25 -0.125 0
-0.5 -0.15625 0
-0.46875 -0.15625 0
-0.4375 -0.15625 0
-0.5 -0.1875 0
-0.46875 -0.1875 0
-0.4375 -0.1875 0
-0.40625 -0.15625 0
-0.375 -0.15625 0
[...]
POINT_DATA 1089
SCALARS T float
LOOKUP_TABLE default
0
0
0
0
0
0
0
0
0
0
0
0
0
0
0
0
0
0
0
0
0
0
0
0
0
0
0
0
0
0
0
0
0
0
0
0
0
0
0
0
0
0
0
0
0
0
0
0
0
0
0
0
0
0
0
0
0
0
0
0
0
0
0
0
0
0
0
0
0
0
0
0
0
0
0
0
0
0
0
0
0
0
0
0
0
0
0
0
0
0
0
0
0
0
0
0
0
0
0
0
0
0
0
0
0
0
0
0
0
0
0
0
0
0
0
0
0
0
0
0
0
0
0
0
0
0
0
0
0
0
0
0
0
0
0
0
0
0
0
0
0
0
0
0
0
0
0
0
0
0
0
0
0
0
0
0
0
0
0
0
0
0
0
0
0
0
0
0
0
0
0
0
0
0
0
0
0
0
0
0
0
0
0
0
0
0
0
0
0
0
0
0
0
0
0
0
0
0
0
0
0
0
0
0
0
0
0
0
0.0210627
0
0
0
0
0
0
0
0
0
0
0.150663
0.341309
0.0115345
0.0449722
0.472501
0.544231
0
0
0
0
0
0
0
0
0
0
0
0
0
0
0
0
0
0
0
0
0
0
0
0
0
0
0
0
0
0
0
0
0
0
0
0
0
0
0
0
0.0669866
0.0459036
0.566987
0.545415
0.0123547
0
0.477695
0.354985
0
0
0
0
0
0
0
0
0
0
0.171426
0.0322706
0
0
0
0
0
0
0
0
0
0
0
0
0
0
0
0
0
0
0
0
0
0
0
0
0
0
0
0
0
0
0
0
0
0
0
0
0
0
0
0
0
0
0
0
0
0
0
0
0
0
0
0
0
0
0.00475623
0.107961
0
0
0.292588
0.389514
0
0
0
0
0
0
0
0
0
0
0.345054
0.179336
0
0
0.0344128
0
0
0
0
0
0
0
0
0
0
0
0
0
0
0
0
0
0
0
0
0
0
0
0
0
0
0
0
0
0
0
0
0
0
0
0
0
0
0
0
0
0
0
0
0
0
0
0
0
0
0
0
0
0
0
0
0
0
0
0
0
0
0
0
0
0
0
0
0
0
0
0
0
0.135651
0.488856
0.335542
0.835542
0.792588
0.889514
1
1
0.352732
0.852732
0.161804
0.557128
1
1
0.884415
0.98909
0.845054
0.65501
1
0.975673
0.297492
0.0374063
0.647895
0.172222
1
1
0.993384
0.902962
0.749533
0.249533
0.533798
0.12422
0.0137193
0.159043
0
0
0.388766
0.517148
0.00435123
0.0280581
0
0
0
0
0
0
0
0
0.526594
0.412465
0.0332098
0.00950294
0.16908
0.00950225
0
0
0
0
0
0
0
0
0
0
0
0
0
0
0
0
0
0
0
0
0
0
0
0
0
0
0
0
0
0
0
0
0
0
0
0
0
0
0
0
0
0
0
0
0
0
0
0
0
0
0
0
0
0
0
0
0
0
0
0
0
0
0
0
0
0
0
0
0
0
0
0
0
0
0
0
0
0
0
0.0012525
0.0486589
0.299148
0.257455
0.735629
0
0
0.0409039
0
0
0.0982568
0.498447
0.957544
0.598257
1
0.630089
0.841309
0.979426
1
0.960967
0.999258
1
1
1
1
1
1
1
1
1
1
0
0
0.0817468
0
0
0.0231543
0.58045
0.998703
0.433228
0.910074
0
0
1.28282e-05
0
0
0
0.167282
0.582712
0.00589791
0.171516
1
1
1
1
1
1
1
1
0.915261
0.999817
0.47008
0.698075
1
1
0.844792
0.930957
1
0.999511
1
1
0.965341
0.854985
1
1
1
1
1
1
1
1
1
1
0.662694
0.366626
0.991267
0.827285
0.0930877
0
0.38309
0.0470724
1
0.99293
1
1
0.680485
0.187555
0.804408
0.304408
1
1
1
1
1
1
1
1
1
1
0.961222
0.938966
1
1
0.864923
0.734856
1
1
1
0.982107
0.793209
0.293209
0.647206
0.165099
0.959092
0.743089
0.540244
0.26468
0.319813
0.0358163
0.0518902
0
0
0
0
0
0
0
0
0.00017447
0
0
0
0
0
0
0
0
0
0
0
0
0.054819
0.198258
0
0
0.344792
0.430957
0
0
0
0
0
0
0
0
0
0
0
0
0
0
0
0
0
0
0
0
0
0
0
0
0
0
0
0
0
0
0
0
0
0
0
0
0
0
0
0
0
0
0
0
0
0
0.461222
0.438966
0
0
0.364923
0.234856
0
0
0
0
0
0
0
0
0
0
0.0811524
0.00369809
0
0
0
0
0
0
0
0
0
0
0
0
0
0
0
0
0
0
0
0
0
0
0
0
0
0
0
0
0
0
0
0
0
0
0
0
0
0
0
0
0
0
0
0
0
0
0
0.0093946
0
0.139288
0.152253
0.329027
0.532147
0.829027
0
0.256808
0
0.142828
0.756808
1
0.546732
0.895886
0.292613
0.106918
0.79057
0.42091
0.000473746
0
0.066509
0
0.997957
0.650126
0.967135
0.563473
0.152169
0
0.08832
0
0
0.0159142
0
0
0.169818
0.399088
0
0.00320226
0
0
0
0
0
0
0
0
0.494791
0.251792
0.0276559
0.0244536
0.00218618
0
0
0
0
0
0
0
0
0
0
0
0
0
0
0
0
0
0
0
0
0
0
0
0
0
0
0
0
0
0
0
0
0
0
0
0
0
0
0
0
0
0
0
0
0
0
0
0
0
0
0
0
0
0
0
0
0
0
0
0
0
0
0
0
0
0
0
0
0
0
0
0
0
0
0
0
0
0
0
0
0
0
0
0
0
0
0
0
0
0
0
0
0
0
0
0
0
0
0
0
0
0
0
0
0
0
0
0
0
0
0
0
0
0
0
0
0
0
0
0
0
0
0
0
0
0
0
0
0
0
0
0
0
0
0
0
0
0
0
0
0
0
0
0
0
0
0
0
0
0
0
0
0
0
0
0
0
0
0
0
0
0
0
0
0
0
0
0
0
0
0
0
0
0
0
0
0
0
0
0
0
0
0
0
0
0
0
0
0
0
0
0
0
0
0
0
0
0
0
0
0
0
0

SCALARS P float
LOOKUP_TABLE default
-0.00893939
-0.00874679
-0.00891566
-0.0087019
-0.00848466
-0.00839665
-0.00905399
-0.00887944
-0.00864677
-0.00816233
-0.00801266
-0.00779575
-0.00756509
-0.00836701
-0.00805618
-0.00925069
-0.00908307
-0.0088655
-0.0095197
-0.00934581
-0.00912821
-0.00861045
-0.00833402
-0.00888041
-0.00861896
-0.00741005
-0.0070854
-0.00703537
-0.00661479
-0.00773562
-0.00742895
-0.00669997
-0.00619266
-0.00642754
-0.00585097
-0.00715797
-0.00694077
-0.00805556
-0.00779521
-0.00836257
-0.00813009
-0.00757141
-0.00739901
-0.00793889
-0.00780269
-0.00985344
-0.0096583
-0.00942462
-0.0102446
-0.010012
-0.00974565
-0.00916662
-0.00890137
-0.00945962
-0.00917128
-0.0106858
-0.0103992
-0.0100836
-0.0111657
-0.0108108
-0.010431
-0.00975122
-0.00941913
-0.010034
-0.00963538
-0.00864802
-0.00842592
-0.00890105
-0.00867058
-0.00825352
-0.00814559
-0.00850176
-0.00841272
-0.00910971
-0.00884895
-0.00926004
-0.0089409
-0.008665
-0.00858211
-0.00871645
-0.00862049
-0.00622984
-0.0056038
-0.00611366
-0.00546271
-0.00678681
-0.00669946
-0.00607341
-0.00542261
-0.00609626
-0.00547058
-0.00667212
-0.00669043
-0.00728582
-0.00723286
-0.00772888
-0.00771714
-0.00723209
-0.00726629
-0.00775827
-0.00783151
-0.00616013
-0.00558187
-0.00623802
-0.0057237
-0.00673204
-0.00676988
-0.00630344
-0.00586479
-0.00633821
-0.00598213
-0.00677623
-0.00673125
-0.00731029
-0.00733226
-0.0079077
-0.00794557
-0.00729646
-0.00717266
-0.00789354
-0.00770155
-0.00811065
-0.00814845
-0.00841513
-0.00851134
-0.00824978
-0.00839093
-0.0086949
-0.00894128
-0.00861771
-0.00878027
-0.00867905
-0.00891033
-0.0090691
-0.00946312
-0.00932286
-0.00990557
-0.0085375
-0.00863382
-0.00921297
-0.00944178
-0.00860539
-0.00836344
-0.00952474
-0.00931085
-0.00992869
-0.0103931
-0.0106418
-0.0114747
-0.010722
-0.0106885
-0.0122721
-0.0128069
-0.0116704
-0.0112392
-0.0107844
-0.012186
-0.011679
-0.0111448
-0.0103055
-0.00981483
-0.0105689
-0.00995735
-0.0126942
-0.01213
-0.0115245
-0.0131906
-0.0126066
-0.0119554
-0.010841
-0.0100764
-0.0111648
-0.010212
-0.00934019
-0.00892536
-0.00934
-0.00877792
-0.00862579
-0.00848871
-0.00835591
-0.00813746
-0.00925726
-0.00847441
-0.00910295
-0.00798728
-0.00786552
-0.0075096
-0.00710645
-0.00654466
-0.0137006
-0.0131432
-0.0124928
-0.0142799
-0.0138151
-0.0132555
-0.01161
-0.0104332
-0.0123376
-0.010919
-0.0149408
-0.0146429
-0.0143311
-0.0157478
-0.0157682
-0.0160659
-0.0135901
-0.0120647
-0.0159833
-0.0133094
-0.00890317
-0.00727793
-0.00873286
-0.00626748
-0.00600646
-0.00515466
-0.00444214
-0.00321719
-0.00887222
-0.00497141
-0.00280268
0.00997991
-0.00206001
0.000500417
0.0167645
0.0198918
-0.00855087
-0.00884374
-0.00817025
-0.00850068
-0.00938817
-0.0101905
-0.00915786
-0.0101623
-0.00746486
-0.00779149
-0.00636838
-0.00665055
-0.00851411
-0.00963895
-0.00740228
-0.00857933
-0.0112791
-0.0126621
-0.0115927
-0.0135028
-0.0143722
-0.0164935
-0.0162219
-0.0201235
-0.0112268
-0.0132813
-0.0101498
-0.011973
-0.0161437
-0.0201486
-0.0140251
-0.0163509
-0.00479465
-0.00502325
-0.00261725
-0.00278314
-0.00584427
-0.00713141
-0.00376886
-0.00535624
0.00193605
0.00116844
0.0207617
0.01998
-0.000927336
-0.00329096
0.0172883
0.0116287
-0.008765
-0.0104146
-0.00738646
-0.00928813
-0.0117429
-0.0124569
-0.0105585
-0.0108797
-0.00618049
-0.00881641
0.00140489
-0.00793521
-0.0104265
-0.0108994
-0.0116774
-0.0122465
-0.00633699
-0.00606855
-0.00631551
-0.00613891
-0.00662631
-0.00647934
-0.00631335
-0.0062256
-0.00637864
-0.00636364
-0.0063455
-0.0063084
-0.00694106
-0.00661748
-0.00732086
-0.00674455
-0.0062853
-0.00610432
-0.00609666
-0.00568808
-0.00654408
-0.0065794
-0.00682429
-0.00687997
-0.00641463
-0.00669738
-0.00719304
-0.00724502
-0.00759564
-0.00763564
-0.00711302
-0.00756735
-0.0061356
-0.0064537
-0.00560805
-0.00602261
-0.00698189
-0.00754181
-0.00677937
-0.00752558
-0.00779725
-0.00682945
-0.00858149
-0.00703384
-0.00566508
-0.00491781
-0.00495387
-0.00355915
-0.00983088
-0.00725806
-0.0116495
0.00314158
-0.00359545
-0.00120904
0.0259808
0.0360731
-0.00469272
-0.00531306
-0.00303726
-0.00406611
-0.00649357
-0.00755305
-0.00607291
-0.00767248
-0.000442913
-0.00232836
0.0316321
0.0149044
-0.00571097
-0.00814768
-0.00226112
-0.00938016
-0.00799659
-0.00802119
-0.00836003
-0.00837249
-0.00801957
-0.00842031
-0.0086614
-0.00866708
-0.00888794
-0.0088909
-0.00874471
-0.00898328
-0.0080916
-0.00855733
-0.00823378
-0.00879235
-0.00892031
-0.00917743
-0.00920514
-0.00948075
-0.00903082
-0.00903366
-0.00908649
-0.0090881
-0.00913055
-0.00918819
-0.00905517
-0.0090513
-0.00893939
-0.00892678
-0.00916039
-0.00905399
-0.0093297
-0.0093861
-0.009632
-0.00967828
-0.00935606
-0.00925069
-0.0096357
-0.0095197
-0.00849676
-0.00916767
-0.00895033
-0.00973678
-0.00962983
-0.00991137
-0.0102292
-0.0104875
-0.0097888
-0.0106207
-0.0113421
-0.0119963
-0.0110718
-0.0112418
-0.0122295
-0.0121912
-0.0100455
-0.0100654
-0.0105767
-0.0105467
-0.00999495
-0.00985344
-0.0104287
-0.0102446
-0.0112376
-0.0111226
-0.012022
-0.0117797
-0.0109319
-0.0106858
-0.0114907
-0.0111657
0.00271275
0.0491306
0.0295253
0.0975428
0.0812697
0.0869384
0.10928
0.103517
0.0326236
0.100276
0.00746053
0.0583838
0.108755
0.10371
0.0902646
0.0965957
0.0808908
0.0633935
0.10221
0.10337
0.0242956
-0.00832645
0.0672832
0.00510043
0.10426
0.111709
0.0984087
0.0958628
0.0848575
0.0133597
0.0529777
-0.00488803
-0.00956523
0.0108522
-0.00968651
-0.0058611
0.0377953
0.0497426
-0.000447593
0.00413487
-0.0100767
-0.00781073
-0.0114805
-0.0100443
-0.00467945
-0.00264858
-0.00782391
-0.00580644
0.0507162
0.0386411
0.00357635
-0.00418758
0.00564697
-0.0178629
-0.0120507
-0.0154228
-0.00316314
-0.00741166
-0.00607549
-0.00989988
-0.0122826
-0.0146968
-0.0135394
-0.0150256
-0.0138011
-0.0138463
-0.0187185
-0.0167685
-0.0136483
-0.0132822
-0.0154727
-0.0145265
-0.0229735
-0.01922
-0.0220835
-0.019113
-0.016955
-0.0155471
-0.017201
-0.0159409
-0.0128873
-0.0124866
-0.0138038
-0.0132109
-0.0120836
-0.0116704
-0.0126863
-0.012186
-0.0145796
-0.0138544
-0.0150352
-0.0143374
-0.0132512
-0.0126942
-0.0137464
-0.0131906
-0.018585
-0.0176138
-0.0164033
-0.0165203
-0.0166784
-0.0159032
-0.0162116
-0.0158185
-0.0157804
-0.0161074
-0.015875
-0.0161145
-0.0160381
-0.0158435
-0.0160804
-0.0159613
-0.0152506
-0.0146959
-0.0154071
-0.0150207
-0.0141949
-0.0137006
-0.0146533
-0.0142799
-0.0155987
-0.0153635
-0.0158269
-0.0157327
-0.0151455
-0.0149408
-0.0156954
-0.0157478
-0.0165512
-0.0170188
-0.0184273
-0.0172646
-0.0183928
-0.0209893
-0.0163439
0.00197586
-0.00282481
0.0328764
-0.0174758
-0.0188629
-0.0171065
-0.0169741
-0.0180078
-0.00979471
0.0176106
0.0514894
0.0275307
0.0549218
0.0243028
0.0344108
0.0480786
0.0461484
0.0382195
0.0388015
0.043777
0.042331
0.051664
0.0485342
0.0524648
0.0496815
0.0461216
0.0446412
0.0473846
0.0459485
-0.0167274
-0.017915
-0.0114922
-0.0165482
-0.0181242
-0.0183924
0.0261157
0.0551471
0.0130062
0.0483041
-0.0156425
-0.0168925
-0.0195666
-0.0143218
-0.0149092
-0.0159855
-0.00800485
0.0225603
-0.0167691
-0.00429896
0.0523906
0.0496985
0.0513976
0.0485946
0.0475341
0.0462053
0.0466191
0.0454559
0.043302
0.045967
0.0167937
0.0291022
0.0445201
0.0437119
0.0350872
0.0383377
0.0382299
0.0381965
0.0416266
0.0418078
0.0375412
0.0341364
0.0429112
0.0447732
0.0440134
0.0443371
0.0453849
0.0457989
0.0456296
0.0478291
0.0472188
0.049597
0.026112
0.00898856
0.0467862
0.0385076
-0.00940258
-0.0152765
0.0080988
-0.0156798
0.0509354
0.0537551
0.052897
0.0564625
0.0322728
-0.00571672
0.0454684
0.00725146
0.0457142
0.0461766
0.0450166
0.0454364
0.0476412
0.0501155
0.0467957
0.049194
0.0433206
0.0435692
0.0392989
0.0385952
0.0445528
0.0463082
0.0363742
0.0319842
0.0536403
0.0577299
0.0528334
0.0562306
0.0462032
0.00877444
0.0331068
-0.00330644
0.0467336
0.0367428
0.0235459
0.00743093
0.0078523
-0.0122614
-0.00733393
-0.0104262
-0.0129981
-0.013124
-0.0131937
-0.0118285
-0.0116912
-0.0113281
-0.0129296
-0.0109736
-0.0105509
-0.00874917
-0.010872
-0.0106079
-0.0100972
-0.0101328
-0.00982247
-0.00929707
-0.0092281
-0.00775049
-0.00850361
-0.00734528
-0.00407104
0.00610619
-0.00567897
-0.0024453
0.0138065
0.0179697
-0.000350487
0.000836727
-0.0056854
-0.00354707
-0.00589124
-0.00441401
-0.0019662
-0.000945057
-0.00321602
-0.00236309
-0.00959536
-0.00928798
-0.00880566
-0.00923099
-0.00894697
-0.00852484
-0.00812518
-0.00721843
-0.00795909
-0.00725066
-0.00901284
-0.00876151
-0.00840168
-0.00892678
-0.0087019
-0.00839665
-0.00793635
-0.00737718
-0.00801266
-0.00756509
-0.00615394
-0.00508589
-0.00645348
-0.00566021
-0.00417741
-0.00349772
-0.00496448
-0.00442352
-0.00676505
-0.00616005
-0.0070854
-0.00661479
-0.00562117
-0.00519192
-0.00619266
-0.00585097
0.0195686
0.0189795
0.00168977
0.00201668
0.0161875
0.0105912
0.00163946
0.000576334
-0.000230607
3.68745e-05
-0.00178486
-0.00156138
-0.000208893
-0.000937302
-0.00170222
-0.00217938
0.00242312
-0.00394464
-0.00130728
-0.00352342
-0.00680547
-0.00760517
-0.0052723
-0.00607011
-0.00214256
-0.00353245
-0.0029525
-0.00383663
-0.00471961
-0.00541125
-0.00463226
-0.00517883
-0.00303331
-0.0028317
-0.00404663
-0.00386381
-0.00289042
-0.00318861
-0.00386984
-0.00404688
-0.00488687
-0.00472435
-0.0056038
-0.00546271
-0.00469893
-0.00479619
-0.00542261
-0.00547058
-0.00368247
-0.00425739
-0.00435695
-0.0047285
-0.0048011
-0.00521771
-0.00509447
-0.00539826
-0.00498597
-0.0052218
-0.00558187
-0.0057237
-0.00546006
-0.00566584
-0.00586479
-0.00598213
-0.0141312
-0.0118336
-0.0180878
0.00895286
0.0142951
0.0453227
0.0815087
0.132468
-0.0208739
0.0312517
-0.0171493
0.0149557
0.125154
0.164646
0.0899041
0.143595
0.0378042
0.00411092
0.124353
0.0581867
-0.0155276
-0.0162086
-0.0069191
-0.0187797
0.16383
0.0996799
0.156701
0.0793493
0.00657501
-0.0196697
-0.0132416
-0.022499
-0.0128697
-0.00469536
-0.0126007
-0.00729104
0.0281142
0.0683314
-0.000150568
0.00768186
-0.0107142
-0.00697079
-0.00824643
-0.00626894
-0.002579
0.00156911
-0.00389583
-0.00210308
0.080779
0.0256621
0.0071416
-0.0043712
-0.0253455
-0.020276
-0.0123892
-0.0133703
0.00173496
-0.00433849
-0.00229356
-0.00531771
-0.00996624
-0.0115375
-0.00847891
-0.00997165
-0.0165414
-0.0164553
-0.017851
-0.0171001
-0.0162929
-0.016143
-0.0166017
-0.0163109
-0.0182262
-0.0173083
-0.0189165
-0.0173307
-0.0166502
-0.0162898
-0.0164264
-0.016007
-0.0160583
-0.0160713
-0.0162192
-0.0163093
-0.0162119
-0.0165512
-0.0166248
-0.0172646
-0.0161979
-0.0163331
-0.0159099
-0.0160461
-0.0167314
-0.0174758
-0.0163939
-0.0169741
-0.0175724
-0.01633
-0.0141889
-0.014378
-0.0156736
-0.0154063
-0.0144471
-0.0145304
-0.0125662
-0.0130172
-0.0111439
-0.0118057
-0.0133471
-0.0136119
-0.0123074
-0.0126894
-0.0154155
-0.0156323
-0.0147357
-0.015081
-0.0160596
-0.0167274
-0.0156523
-0.0165482
-0.0139226
-0.0143083
-0.0130474
-0.0134091
-0.0148499
-0.0156425
-0.0138222
-0.0143218
-0.0068748
-0.00589623
-0.00599337
-0.00563453
-0.0046531
-0.00386471
-0.00510764
-0.00487492
-0.00558554
-0.00553963
-0.00544133
-0.00555846
-0.00539605
-0.00543133
-0.00562152
-0.0057879
-0.00415838
-0.00592048
-0.00521159
-0.00629991
-0.00791709
-0.00915768
-0.00760763
-0.00860692
-0.00579217
-0.00655765
-0.00613934
-0.0067156
-0.00747885
-0.00827669
-0.00740238
-0.00804912
-0.00547966
-0.00565396
-0.00562094
-0.00579508
-0.00580379
-0.00601851
-0.00596421
-0.00618095
-0.00582722
-0.00596299
-0.00606855
-0.00613891
-0.00610669
-0.00629483
-0.0062256
-0.00636364
-0.00634856
-0.00681224
-0.00647921
-0.00686852
-0.00735257
-0.00788659
-0.00731732
-0.00777483
-0.00655397
-0.00689014
-0.0065794
-0.00687997
-0.00728188
-0.00769144
-0.00724502
-0.00763564
-0.0102004
-0.0108883
-0.00949516
-0.0101521
-0.0114256
-0.0118381
-0.0106759
-0.0110801
-0.00900609
-0.00958972
-0.00865352
-0.00916325
-0.0100636
-0.0104311
-0.00958233
-0.00990647
-0.0121866
-0.012487
-0.0113965
-0.0116291
-0.0127608
-0.0129981
-0.0117828
-0.0118285
-0.0107033
-0.010875
-0.0101349
-0.0102573
-0.0109422
-0.010872
-0.010266
-0.0101328
-0.00839394
-0.00883751
-0.00821524
-0.0086087
-0.00920652
-0.00949103
-0.00893819
-0.00919082
-0.00809106
-0.00845324
-0.00802119
-0.00837249
-0.00875773
-0.00899034
-0.00866708
-0.0088909
-0.00968396
-0.00977313
-0.00935692
-0.00942481
-0.0097506
-0.00959536
-0.00938744
-0.00923099
-0.00914044
-0.00919811
-0.00903366
-0.0090881
-0.00915802
-0.00901284
-0.0090513
-0.00891566

SCALARS U float
LOOKUP_TABLE default
0.0175949
0.0177099
0.0169399
0.0170707
0.0179357
0.0173354
0.0181675
0.0182421
0.018409
0.0182966
0.0177827
0.0187975
0.0184355
0.0186801
0.019052
0.0186703
0.0186867
0.0187849
0.0191109
0.019056
0.0190807
0.0189696
0.0192332
0.0191856
0.01936
0.0194167
0.0192753
0.0200839
0.0201908
0.0195043
0.0199902
0.0207109
0.0210331
0.0212328
0.0216942
0.0204547
0.020857
0.019557
0.0199064
0.0195849
0.0198299
0.0202437
0.0205411
0.0200641
0.020266
0.0194895
0.0193527
0.0193023
0.0197979
0.0195707
0.0194461
0.0193358
0.0194395
0.0194193
0.0194735
0.020014
0.0196927
0.0194983
0.0201097
0.0196936
0.0194344
0.0194263
0.0194587
0.0193353
0.0193814
0.0195916
0.0197591
0.019581
0.0196988
0.0199099
0.020023
0.0197843
0.0198117
0.0195583
0.0196623
0.0195236
0.019664
0.0197044
0.0196468
0.0196922
0.0195461
0.0216349
0.0221574
0.0219486
0.0224898
0.0211855
0.0214547
0.0222238
0.0227852
0.0224899
0.0230986
0.021692
0.0219147
0.0207901
0.0209989
0.0204301
0.0205651
0.0211855
0.0213638
0.0206873
0.0208117
0.0227462
0.0234233
0.0229605
0.0237053
0.0221271
0.0223115
0.0230883
0.023868
0.0230776
0.0238424
0.022446
0.0224858
0.0215431
0.0217148
0.0209477
0.0210878
0.0218754
0.0219852
0.0212431
0.0213939
0.0200963
0.0201445
0.0197838
0.019728
0.0201854
0.0202337
0.0196659
0.0196075
0.0195011
0.0193205
0.0192554
0.0189244
0.0191392
0.0189653
0.0186328
0.0184189
0.0202815
0.0203048
0.0195024
0.0192854
0.020315
0.0203843
0.0189508
0.0187589
0.0186828
0.0181763
0.0181399
0.0177021
0.0173657
0.0164979
0.016913
0.0155727
0.0200498
0.0195397
0.0192177
0.0198168
0.0191949
0.0187886
0.0191092
0.0192133
0.0186639
0.0188551
0.0194254
0.0186169
0.0180335
0.0188613
0.0177067
0.0166939
0.0177964
0.0180079
0.0159842
0.0158235
0.0194673
0.0197166
0.0192894
0.019734
0.0197743
0.0195328
0.0198859
0.0195572
0.0186172
0.0193262
0.0163219
0.0172736
0.0196896
0.0193917
0.0181385
0.0183848
0.0181155
0.0163055
0.0142564
0.0172072
0.0142583
0.0100508
0.0121323
0.0105737
0.0048166
0.000286
0.0163362
0.0117037
0.00385702
0.0163552
0.0100187
-0.00225059
-0.0062656
-0.014012
-0.0166308
-0.0219658
0.0102393
0.0113926
-0.00156557
0.000422336
0.0134629
0.0154893
0.00516377
0.0105964
-0.0154893
-0.0100178
-0.0157431
-0.00437685
-0.00122934
0.00725348
0.00568351
0.0123222
0.0190563
0.0185453
0.0188603
0.0181351
0.0181869
0.0181186
0.017729
0.0179096
0.0185814
0.0177372
0.0180962
0.0177715
0.0173491
0.0177303
0.0178835
0.018578
0.0182833
0.018771
0.0187294
0.0205298
0.0194217
0.0202602
0.0230791
0.027953
0.0189027
0.0211679
0.0196077
0.020883
0.0241196
0.0291286
0.0220427
0.022223
0.0172869
0.0191101
0.0161858
0.0219916
0.0210806
0.0228879
0.0277291
0.0324159
0.0154137
0.0239769
0.0171365
0.0217026
0.0330495
0.0417299
0.0276741
0.0364923
0.0237517
0.0232412
0.0341763
0.0320887
0.0214155
0.0173409
0.0270662
0.0204214
0.0468838
0.045723
0.0466288
0.0531933
0.0384258
0.027849
0.0495742
0.0354997
0.022886
0.0235825
0.0224802
0.0230617
0.0223966
0.0221205
0.0217948
0.0222452
0.0209226
0.0212126
0.021517
0.0207103
0.0220436
0.0219397
0.0216654
0.0218188
0.0213872
0.0205772
0.0212922
0.0204723
0.0200187
0.0201165
0.0192047
0.0191104
0.019898
0.0191942
0.0186117
0.0183224
0.0182305
0.0177705
0.0187645
0.0185715
0.0198008
0.0191601
0.0198232
0.0193036
0.0188753
0.0188944
0.0191596
0.0194165
0.0209333
0.0213995
0.0192896
0.0193219
0.0208428
0.0201487
0.0182592
0.0184572
0.0153067
0.0128376
0.012417
0.0100843
0.0116814
0.0153687
0.0139557
0.0221655
0.0200591
0.0200141
0.0208245
0.0227008
0.0200323
0.0205243
0.0226237
0.022721
0.0235413
0.0298113
0.031139
0.0377074
0.0289805
0.0266704
0.0371273
0.0325736
0.0180022
0.0174199
0.0178644
0.0172103
0.0185028
0.0184699
0.0177664
0.0170846
0.0176906
0.0170062
0.0184208
0.0183565
0.0190135
0.0190952
0.0197243
0.0198671
0.0190932
0.0190308
0.0198573
0.0197522
0.0176254
0.0169504
0.0175776
0.0169128
0.0182788
0.018208
0.0175596
0.016901
0.0175949
0.0169432
0.0181631
0.0181675
0.0189249
0.0188115
0.0195827
0.0193971
0.018718
0.0186703
0.0192303
0.0191109
0.0209842
0.0210162
0.0231158
0.0227625
0.0208356
0.0205742
0.0221453
0.0215385
0.0260403
0.0249537
0.0291733
0.0268331
0.0236888
0.0225739
0.0249963
0.0234446
0.0202719
0.0199698
0.0209982
0.0205228
0.0197001
0.0194895
0.0201182
0.0197979