# vtk DataFile Version 2.0
Gerris simulation version 1.3.2 (131206-155120)
ASCII
DATASET UNSTRUCTURED_GRID

POINTS 1089 float
-0.5 0.46875 0
-0.46875 0.46875 0
-0.5 0.5 0
-0.46875 0.5 0
-0.4375 0.46875 0
-0.4375 0.5 0
-0.5 0.4375 0
-0.46875 0.4375 0
-0.4375 0.4375 0
-0.40625 0.46875 0
-0.40625 0.5 0
-0.375 0.46875 0
-0.375 0.5 0
-0.40625 0.4375 0
-0.375 0.4375 0
-0.5 0.40625 0
-0.46875 0.40625 0
-0.4375 0.40625 0
-0.5 0.375 0
-0.46875 0.375 0
-0.4375 0.375 0
-0.40625 0.40625 0
-0.375 0.40625 0
-0.40625 0.375 0
-0.375 0.375 0
-0.34375 0.46875 0
-0.34375 0.5 0
-0.3125 0.46875 0
-0.3125 0.5 0
-0.34375 0.4375 0
-0.3125 0.4375 0
-0.28125 0.46875 0
-0.28125 0.5 0
-0.25 0.46875 0
-0.25 0.5 0
-0.28125 0.4375 0
-0.25 0.4375 0
-0.34375 0.40625 0
-0.3125 0.40625 0
-0.34375 0.375 0
-0.3125 0.375 0
-0.28125 0.40625 0
-0.25 0.40625 0
-0.28125 0.375 0
-0.25 0.375 0
-0.5 0.34375 0
-0.46875 0.34375 0
-0.4375 0.34375 0
-0.5 0.3125 0
-0.46875 0.3125 0
-0.4375 0.3125 0
-0.40625 0.34375 0
-0.375 0.34375 0
-0.40625 0.3125 0
-0.375 0.3125 0
-0.5 0.28125 0
-0.46875 0.28125 0
-0.4375 0.28125 0
-0.5 0.25 0
-0.46875 0.25 0
-0.4375 0.25 0
-0.40625 0.28125 0
-0.375 0.28125 0
-0.40625 0.25 0
-0.375 0.25 0
-0.34375 0.34375 0
-0.3125 0.34375 0
-0.34375 0.3125 0
-0.3125 0.3125 0
-0.28125 0.34375 0
-0.25 0.34375 0
-0.28125 0.3125 0
-0.25 0.3125 0
-0.34375 0.28125 0
-0.3125 0.28125 0
-0.34375 0.25 0
-0.3125 0.25 0
-0.28125 0.28125 0
-0.25 0.28125 0
-0.28125 0.25 0
-0.25 0.25 0
-0.21875 0.46875 0
-0.21875 0.5 0
-0.1875 0.46875 0
-0.1875 0.5 0
-0.21875 0.4375 0
-0.1875 0.4375 0
-0.15625 0.46875 0
-0.15625 0.5 0
-0.125 0.46875 0
-0.125 0.5 0
-0.15625 0.4375 0
-0.125 0.4375 0
-0.21875 0.40625 0
-0.1875 0.40625 0
-0.21875 0.375 0
-0.1875 0.375 0
-0.15625 0.40625 0
-0.125 0.40625 0
-0.15625 0.375 0
-0.125 0.375 0
-0.09375 0.46875 0
-0.09375 0.5 0
-0.0625 0.46875 0
-0.0625 0.5 0
-0.09375 0.4375 0
-0.0625 0.4375 0
-0.03125 0.46875 0
-0.03125 0.5 0
0 0.46875 0
0 0.5 0
-0.03125 0.4375 0
0 0.4375 0
-0.09375 0.40625 0
-0.0625 0.40625 0
-0.09375 0.375 0
-0.0625 0.375 0
-0.03125 0.40625 0
0 0.40625 0
-0.03125 0.375 0
0 0.375 0
-0.21875 0.34375 0
-0.1875 0.34375 0
-0.21875 0.3125 0
-0.1875 0.3125 0
-0.15625 0.34375 0
-0.125 0.34375 0
-0.15625 0.3125 0
-0.125 0.3125 0
-0.21875 0.28125 0
-0.1875 0.28125 0
-0.21875 0.25 0
-0.1875 0.25 0
-0.15625 0.28125 0
-0.125 0.28125 0
-0.15625 0.25 0
-0.125 0.25 0
-0.09375 0.34375 0
-0.0625 0.34375 0
-0.09375 0.3125 0
-0.0625 0.3125 0
-0.03125 0.34375 0
0 0.34375 0
-0.03125 0.3125 0
0 0.3125 0
-0.09375 0.28125 0
-0.0625 0.28125 0
-0.09375 0.25 0
-0.0625 0.25 0
-0.03125 0.28125 0
0 0.28125 0
-0.03125 0.25 0
0 0.25 0
-0.5 0.21875 0
-0.46875 0.21875 0
-0.4375 0.21875 0
-0.5 0.1875 0
-0.46875 0.1875 0
-0.4375 0.1875 0
-0.40625 0.21875 0
-0.375 0.21875 0
-0.40625 0.1875 0
-0.375 0.1875 0
-0.5 0.15625 0
-0.46875 0.15625 0
-0.4375 0.15625 0
-0.5 0.125 0
-0.46875 0.125 0
-0.4375 0.125 0
-0.40625 0.15625 0
-0.375 0.15625 0
-0.40625 0.125 0
-0.375 0.125 0
-0.34375 0.21875 0
-0.3125 0.21875 0
-0.34375 0.1875 0
-0.3125 0.1875 0
-0.28125 0.21875 0
-0.25 0.21875 0
-0.28125 0.1875 0
-0.25 0.1875 0
-0.34375 0.15625 0
-0.3125 0.15625 0
-0.34375 0.125 0
-0.3125 0.125 0
-0.28125 0.15625 0
-0.25 0.15625 0
-0.28125 0.125 0
-0.25 0.125 0
-0.5 0.09375 0
-0.46875 0.09375 0
-0.4375 0.09375 0
-0.5 0.0625 0
-0.46875 0.0625 0
-0.4375 0.0625 0
-0.40625 0.09375 0
-0.375 0.09375 0
-0.40625 0.0625 0
-0.375 0.0625 0
-0.5 0.03125 0
-0.46875 0.03125 0
-0.4375 0.03125 0
-0.5 0 0
-0.46875 0 0
-0.4375 0 0
-0.40625 0.03125 0
-0.375 0.03125 0
-0.40625 0 0
-0.375 0 0
-0.34375 0.09375 0
-0.3125 0.09375 0
-0.34375 0.0625 0
-0.3125 0.0625 0
-0.28125 0.09375 0
-0.25 0.09375 0
-0.28125 0.0625 0
-0.25 0.0625 0
-0.34375 0.03125 0
-0.3125 0.03125 0
-0.34375 0 0
-0.3125 0 0
-0.28125 0.03125 0
-0.25 0.03125 0
-0.28125 0 0
-0.25 0 0
-0.21875 0.21875 0
-0.1875 0.21875 0
-0.21875 0.1875 0
-0.1875 0.1875 0
-0.15625 0.21875 0
-0.125 0.21875 0
-0.15625 0.1875 0
-0.125 0.1875 0
-0.21875 0.15625 0
-0.1875 0.15625 0
-0.21875 0.125 0
-0.1875 0.125 0
-0.15625 0.15625 0
-0.125 0.15625 0
-0.15625 0.125 0
-0.125 0.125 0
-0.09375 0.21875 0
-0.0625 0.21875 0
-0.09375 0.1875 0
-0.0625 0.1875 0
-0.03125 0.21875 0
0 0.21875 0
-0.03125 0.1875 0
0 0.1875 0
-0.09375 0.15625 0
-0.0625 0.15625 0
-0.09375 0.125 0
-0.0625 0.125 0
-0.03125 0.15625 0
0 0.15625 0
-0.03125 0.125 0
0 0.125 0
-0.21875 0.09375 0
-0.1875 0.09375 0
-0.21875 0.0625 0
-0.1875 0.0625 0
-0.15625 0.09375 0
-0.125 0.09375 0
-0.15625 0.0625 0
-0.125 0.0625 0
-0.21875 0.03125 0
-0.1875 0.03125 0
-0.21875 0 0
-0.1875 0 0
-0.15625 0.03125 0
-0.125 0.03125 0
-0.15625 0 0
-0.125 0 0
-0.09375 0.09375 0
-0.0625 0.09375 0
-0.09375 0.0625 0
-0.0625 0.0625 0
-0.03125 0.09375 0
0 0.09375 0
-0.03125 0.0625 0
0 0.0625 0
-0.09375 0.03125 0
-0.0625 0.03125 0
-0.09375 0 0
-0.0625 0 0
-0.03125 0.03125 0
0 0.03125 0
-0.03125 0 0
0 0 0
0.03125 0.46875 0
0.03125 0.5 0
0.0625 0.46875 0
0.0625 0.5 0
0.03125 0.4375 0
0.0625 0.4375 0
0.09375 0.46875 0
0.09375 0.5 0
0.125 0.46875 0
0.125 0.5 0
0.09375 0.4375 0
0.125 0.4375 0
0.03125 0.40625 0
0.0625 0.40625 0
0.03125 0.375 0
0.0625 0.375 0
0.09375 0.40625 0
0.125 0.40625 0
0.09375 0.375 0
0.125 0.375 0
0.15625 0.46875 0
0.15625 0.5 0
0.1875 0.46875 0
0.1875 0.5 0
0.15625 0.4375 0
0.1875 0.4375 0
0.21875 0.46875 0
0.21875 0.5 0
0.25 0.46875 0
0.25 0.5 0
0.21875 0.4375 0
0.25 0.4375 0
0.15625 0.40625 0
0.1875 0.40625 0
0.15625 0.375 0
0.1875 0.375 0
0.21875 0.40625 0
0.25 0.40625 0
0.21875 0.375 0
0.25 0.375 0
0.03125 0.34375 0
0.0625 0.34375 0
0.03125 0.3125 0
0.0625 0.3125 0
0.09375 0.34375 0
0.125 0.34375 0
0.09375 0.3125 0
0.125 0.3125 0
0.03125 0.28125 0
0.0625 0.28125 0
0.03125 0.25 0
0.0625 0.25 0
0.09375 0.28125 0
0.125 0.28125 0
0.09375 0.25 0
0.125 0.25 0
0.15625 0.34375 0
0.1875 0.34375 0
0.15625 0.3125 0
0.1875 0.3125 0
0.21875 0.34375 0
0.25 0.34375 0
0.21875 0.3125 0
0.25 0.3125 0
0.15625 0.28125 0
0.1875 0.28125 0
0.15625 0.25 0
0.1875 0.25 0
0.21875 0.28125 0
0.25 0.28125 0
0.21875 0.25 0
0.25 0.25 0
0.28125 0.46875 0
0.28125 0.5 0
0.3125 0.46875 0
0.3125 0.5 0
0.28125 0.4375 0
0.3125 0.4375 0
0.34375 0.46875 0
0.34375 0.5 0
0.375 0.46875 0
0.375 0.5 0
0.34375 0.4375 0
0.375 0.4375 0
0.28125 0.40625 0
0.3125 0.40625 0
0.28125 0.375 0
0.3125 0.375 0
0.34375 0.40625 0
0.375 0.40625 0
0.34375 0.375 0
0.375 0.375 0
0.40625 0.46875 0
0.40625 0.5 0
0.4375 0.46875 0
0.4375 0.5 0
0.40625 0.4375 0
0.4375 0.4375 0
0.46875 0.46875 0
0.46875 0.5 0
0.5 0.46875 0
0.5 0.5 0
0.46875 0.4375 0
0.5 0.4375 0
0.40625 0.40625 0
0.4375 0.40625 0
0.40625 0.375 0
0.4375 0.375 0
0.46875 0.40625 0
0.5 0.40625 0
0.46875 0.375 0
0.5 0.375 0
0.28125 0.34375 0
0.3125 0.34375 0
0.28125 0.3125 0
0.3125 0.3125 0
0.34375 0.34375 0
0.375 0.34375 0
0.34375 0.3125 0
0.375 0.3125 0
0.28125 0.28125 0
0.3125 0.28125 0
0.28125 0.25 0
0.3125 0.25 0
0.34375 0.28125 0
0.375 0.28125 0
0.34375 0.25 0
0.375 0.25 0
0.40625 0.34375 0
0.4375 0.34375 0
0.40625 0.3125 0
0.4375 0.3125 0
0.46875 0.34375 0
0.5 0.34375 0
0.46875 0.3125 0
0.5 0.3125 0
0.40625 0.28125 0
0.4375 0.28125 0
0.40625 0.25 0
0.4375 0.25 0
0.46875 0.28125 0
0.5 0.28125 0
0.46875 0.25 0
0.5 0.25 0
0.03125 0.21875 0
0.0625 0.21875 0
0.03125 0.1875 0
0.0625 0.1875 0
0.09375 0.21875 0
0.125 0.21875 0
0.09375 0.1875 0
0.125 0.1875 0
0.03125 0.15625 0
0.0625 0.15625 0
0.03125 0.125 0
0.0625 0.125 0
0.09375 0.15625 0
0.125 0.15625 0
0.09375 0.125 0
0.125 0.125 0
0.15625 0.21875 0
0.1875 0.21875 0
0.15625 0.1875 0
0.1875 0.1875 0
0.21875 0.21875 0
0.25 0.21875 0
0.21875 0.1875 0
0.25 0.1875 0
0.15625 0.15625 0
0.1875 0.15625 0
0.15625 0.125 0
0.1875 0.125 0
0.21875 0.15625 0
0.25 0.15625 0
0.21875 0.125 0
0.25 0.125 0
0.03125 0.09375 0
0.0625 0.09375 0
0.03125 0.0625 0
0.0625 0.0625 0
0.09375 0.09375 0
0.125 0.09375 0
0.09375 0.0625 0
0.125 0.0625 0
0.03125 0.03125 0
0.0625 0.03125 0
0.03125 0 0
0.0625 0 0
0.09375 0.03125 0
0.125 0.03125 0
0.09375 0 0
0.125 0 0
0.15625 0.09375 0
0.1875 0.09375 0
0.15625 0.0625 0
0.1875 0.0625 0
0.21875 0.09375 0
0.25 0.09375 0
0.21875 0.0625 0
0.25 0.0625 0
0.15625 0.03125 0
0.1875 0.03125 0
0.15625 0 0
0.1875 0 0
0.21875 0.03125 0
0.25 0.03125 0
0.21875 0 0
0.25 0 0
0.28125 0.21875 0
0.3125 0.21875 0
0.28125 0.1875 0
0.3125 0.1875 0
0.34375 0.21875 0
0.375 0.21875 0
0.34375 0.1875 0
0.375 0.1875 0
0.28125 0.15625 0
0.3125 0.15625 0
0.28125 0.125 0
0.3125 0.125 0
0.34375 0.15625 0
0.375 0.15625 0
0.34375 0.125 0
0.375 0.125 0
0.40625 0.21875 0
0.4375 0.21875 0
0.40625 0.1875 0
0.4375 0.1875 0
0.46875 0.21875 0
0.5 0.21875 0
0.46875 0.1875 0
0.5 0.1875 0
0.40625 0.15625 0
0.4375 0.15625 0
0.40625 0.125 0
0.4375 0.125 0
0.46875 0.15625 0
0.5 0.15625 0
0.46875 0.125 0
0.5 0.125 0
0.28125 0.09375 0
0.3125 0.09375 0
0.28125 0.0625 0
0.3125 0.0625 0
0.34375 0.09375 0
0.375 0.09375 0
0.34375 0.0625 0
0.375 0.0625 0
0.28125 0.03125 0
0.3125 0.03125 0
0.28125 0 0
0.3125 0 0
0.34375 0.03125 0
0.375 0.03125 0
0.34375 0 0
0.375 0 0
0.40625 0.09375 0
0.4375 0.09375 0
0.40625 0.0625 0
0.4375 0.0625 0
0.46875 0.09375 0
0.5 0.09375 0
0.46875 0.0625 0
0.5 0.0625 0
0.40625 0.03125 0
0.4375 0.03125 0
0.40625 0 0
0.4375 0 0
0.46875 0.03125 0
0.5 0.03125 0
0.46875 0 0
0.5 0 0
-0.5 -0.03125 0
-0.46875 -0.03125 0
-0.4375 -0.03125 0
-0.5 -0.0625 0
-0.46875 -0.0625 0
-0.4375 -0.0625 0
-0.40625 -0.03125 0
-0.375 -0.03125 0
-0.40625 -0.0625 0
-0.375 -0.0625 0
-0.5 -0.09375 0
-0.46875 -0.09375 0
-0.4375 -0.09375 0
-0.5 -0.125 0
-0.46875 -0.125 0
-0.4375 -0.125 0
-0.40625 -0.09375 0
-0.375 -0.09375 0
-0.40625 -0.125 0
-0.375 -0.125 0
-0.34375 -0.03125 0
-0.3125 -0.03125 0
-0.34375 -0.0625 0
-0.3125 -0.0625 0
-0.28125 -0.03125 0
-0.25 -0.03125 0
-0.28125 -0.0625 0
-0.25 -0.0625 0
-0.34375 -0.09375 0
-0.3125 -0.09375 0
-0.34375 -0.125 0
-0.3125 -0.125 0
-0.28125 -0.09375 0
-0.25 -0.09375 0
-0.28125 -0.125 0
-0.25 -0.125 0
-0.5 -0.15625 0
-0.46875 -0.15625 0
-0.4375 -0.15625 0
-0.5 -0.1875 0
-0.46875 -0.1875 0
-0.4375 -0.1875 0
-0.40625 -0.15625 0
-0.375 -0.15625 0
[...]
POINT_DATA 1089
SCALARS T float
LOOKUP_TABLE default
0
0
0
0
0
0
0
0
0
0
0
0
0
0
0
0
0
0
0
0
0
0
0
0
0
0
0
0
0
0
0
0
0
0
0
0
0
0
0
0
0
0
0
0
0
0
0
0
0
0
0
0
0
0
0
0
0
0
0
0
0
0
0
0
0
0
0
0
0
0
0
0
0
0
0
0
0
0
0
0
0
0
0
0
0
0
0
0
0
0
0
0
0
0
0
0
0
0
0
0
0
0
0
0
0
0
0
0
0
0
0
0
0
0
0
0
0
0
0
0
0
0
0
0
0
0
0
0
0
0
0
0
0
0
0
0
0
0
0
0
0
0
0
0
0
0
0
0
0
0
0
0
0
0
0
0
0
0
0
0
0
0
0
0
0
0
0
0
0
0
0
0
0
0
0
0
0
0
0
0
0
0
0
0
0
0
0
0
0
0
0
0
0
0
0
0
0
0
0
0
0
0
0
0
0
0
0
0
0
0
0
0
0
0
0
0
0.0258346
0
0.0251875
0.0236241
0.263257
0.19157
0.44064
0.656015
0.914805
0
0
0
0
0
0
0
0
0
0
0
0
0
0
0
0
0
0
0
0
0
0
0
0
0
0
0
0
0
0
0
0
0
0
0.111518
0.195665
0
0
0.208676
0.14602
0.609941
0.695665
0.998423
1
0.708676
0.64602
1
1
0
0
0.0480868
0.00076142
0
0
0
0
0.49329
0.238599
0.945203
0.718083
0.0426348
0
0.308935
0.0360545
0
0
0
0
0
0
0
0
0
0
0
0
0
0
0
0
0
0
0
0
0
0
0
0
0
0
0
0
0
0
0
0
0
0
0
0
0
0
0
0
0
0
0
0
0
0
0
0
0
0
0
0
0.0156852
0.179191
0.175716
0.589222
0
0
0
0.000586433
0
0
0.000586433
0
0.40455
0.462812
0.90455
0.962226
0.32363
0.101866
0.821771
0.426715
0
0
0
0
0
0
0
0
0
0
0
0
0
0
0
0
0
0
0
0
0
0
0
0
0
0
0
0
0
0
0
0
0
0
0
0
0
0
0
0
0
0
0
0
0
0
0
0
3.63732e-06
0
0.0761254
0
0
0
0
0
0
0
0
0
0
0
0
0
0
0
0
0
0
0
0
0
0
1.64866e-05
0
2.24425e-05
0.395836
0.89582
0.451739
0.951716
0
5.95592e-06
0
0
0.307027
0.806234
0.091094
0.400364
1
1
1
1
0.998728
0.738678
1
0.820159
0.999213
1
0.705713
0.78675
0.99096
0.698292
0.675271
0.335966
0
0
0
0
0
0.0600571
0
0
0
0
0
0
0
0
0
0
0.2065
0.28675
0
0
0.184311
0.0440037
0
0
0
0
0
0
0
0
2.91331e-05
2.91331e-05
0.239951
0
0.320159
0
0
0
0
0
0.207332
0
0.0510025
0
0
0
0
0
0
0
0
0
0
0
0
0
0
0
0
0
0
0
0
0
0
0
0
0
0
0
0
0
0
0
0
0
0
0
0
0
0
0
0
0
0
0
0
0
0
0
0
0
0
0
0
0
0
0
0
0
0
0
0
0
0
0.009587
0
0
0
0
0
0
0
0.0514232
0
0.0739105
0.179839
0.644284
0.40791
0.898323
0.964445
1
1
1
0.543531
0.992108
0.57391
1
1
1
1
1
0
0
0
0
0
0
0
0.0335473
0
0.00147313
0
0
0
0
0
0
0
0
0
0
0.502471
0.968923
0.31639
0.814916
1
1
1
1
0.0964737
0.474421
0.000480648
0.128428
0.877168
0.999221
0.43079
0.711269
1
1
1
1
1
1
1
1
1
1
1
1
1
1
1
1
1
0.980246
1
1
0.693419
0.213173
0.925838
0.448507
1
1
1
1
0.99872
0.582724
1
0.611313
1
1
1
1
1
1
1
1
1
1
0.874623
0.952745
1
1
0.959605
0.894617
1
1
1
1
0.981105
0.536995
0.845213
0.351124
1
0.900143
0.742332
0.470939
0.51684
0.116697
0.152757
0.0025898
0
0
0
0
0
0
0
0
0
0
0
0
0
0
0
0
0
0
0
0
0
0
0
0
0.0536221
0.212048
0
0
0
0
0
0
0
0
0
0
0
0
0
0
0
0
0
0
0
0
0
0
0
0
0
0
0
0
0
0
0
0
0
0
0
0
0
0
0
0
0
0
0
0
0
0
0.374623
0.452745
0
0
0.459605
0.394617
0
0
0
0
0
0
0
0
0
0
0.242332
0.0707967
0
0
2.44944e-05
0
0
0
0
0
0
0
0
0
0
0
0
0
0
0
0
0
0
0
0
0
0
0
0
0
0
0
0
0
0
0
0
0
0
0
0
0
0
0
0
0
0
0
0
0
0.0226688
0
0
0
0
0
0.0840035
0
0.111313
0
0
0.0462058
0
0.141737
0
0.0542639
0.0266626
0.0813074
0.0564988
0.00223491
0.0568505
0.00220577
0.315375
0.468033
0.634244
0.94099
0.390425
0.249001
0.890044
0.681793
0.0558894
0
0.00591152
0
0
0.122986
0
0.0274547
0
0
0
0
0
0
0
0
0.611935
0.988949
0.298838
0.635098
1
0.842779
0.704321
0.511021
0.0324349
0.14615
0
0
0.204321
0.101033
0
0
0
0
0
0
0
0
0
0
0.0574403
0
0.240232
0
0
0
0
0
0
0
0
0
0
0
0
0
0
0
0
0
0
0
0
0
0.342779
0
0.170415
0
0
0
0
0
0.0104272
0
0
0
0
0
0
0
0
0
0
0
0
0
0
0
0
0
0
0
0
0
0
0
0
0
0
0
0
0
0
0
0
0
0
0
0
0
0
0
0
0
0
0
0
0
0
0
0
0
0
0
0
0
0
0
0
0
0
0
0
0
0
0
0
0
0
0
0
0
0
0
0
0
0
0
0
0
0
0
0
0
0
0
0
0
0
0
0
0
0
0
0
0
0
0
0
0
0
0
0
0
0
0
0
0
0
0
0
0
0
0
0
0
0
0
0
0
0
0
0
0
0
0
0
0
0
0
0
0
0
0
0
0
0
0
0
0
0
0
0
0
0
0
0
0
0
0
0
0
0
0

SCALARS P float
LOOKUP_TABLE default
-0.00669174
-0.00670241
-0.0068409
-0.00684517
-0.00670684
-0.00684016
-0.00654412
-0.00656518
-0.00658089
-0.0067043
-0.00682579
-0.0066927
-0.00679867
-0.00659081
-0.00659369
-0.00640057
-0.00643364
-0.00646138
-0.00626211
-0.00630853
-0.00634874
-0.0064834
-0.00649901
-0.00638212
-0.00640842
-0.00667223
-0.00675798
-0.00664473
-0.00670485
-0.00659023
-0.00658251
-0.00661558
-0.00664517
-0.00659348
-0.00659094
-0.00657516
-0.00657478
-0.00650915
-0.00651607
-0.00642871
-0.00644549
-0.00652402
-0.00653853
-0.00646307
-0.00648679
-0.00613162
-0.00619235
-0.00624509
-0.0060128
-0.00608859
-0.00615386
-0.00628886
-0.00632366
-0.00620703
-0.00624812
-0.00591157
-0.00600254
-0.00608023
-0.00583315
-0.00593949
-0.00603005
-0.00614203
-0.0061874
-0.00610061
-0.006149
-0.00635066
-0.0063726
-0.00627831
-0.00630039
-0.00639433
-0.00642178
-0.0063202
-0.0063452
-0.00621721
-0.00623355
-0.00617503
-0.00617872
-0.00624373
-0.00625805
-0.00616944
-0.00616148
-0.00658942
-0.006559
-0.00661337
-0.00656654
-0.00658902
-0.00662413
-0.00667006
-0.00662378
-0.00675518
-0.00672534
-0.00668231
-0.00675981
-0.00656551
-0.00660939
-0.00652211
-0.00657297
-0.00667115
-0.00674743
-0.00664006
-0.00672009
-0.0068558
-0.00685101
-0.00695595
-0.00697597
-0.00684782
-0.00693487
-0.00704308
-0.00708201
-0.0071069
-0.00715676
-0.00701216
-0.00707043
-0.00683152
-0.00691409
-0.00680715
-0.00689239
-0.00698891
-0.00704683
-0.00697142
-0.00703455
-0.00646129
-0.00651784
-0.00638438
-0.0064454
-0.00659234
-0.00668107
-0.00652975
-0.00663277
-0.00629064
-0.00635461
-0.00617809
-0.00624223
-0.00645271
-0.00657821
-0.00635871
-0.0065168
-0.00677757
-0.00687167
-0.0067453
-0.00685326
-0.00695999
-0.00703189
-0.00695311
-0.00703274
-0.00671499
-0.0068424
-0.00668746
-0.00683811
-0.00695431
-0.00703822
-0.00695241
-0.00701662
-0.00578425
-0.00590586
-0.00601058
-0.00576785
-0.00590654
-0.00602903
-0.00609157
-0.00614299
-0.00612495
-0.00618227
-0.00577818
-0.00594234
-0.00609038
-0.00581572
-0.00601748
-0.00620301
-0.00620932
-0.00627988
-0.00635977
-0.00646202
-0.0061625
-0.00614585
-0.00619564
-0.00615124
-0.00610387
-0.00605517
-0.00605813
-0.00593814
-0.00629213
-0.0062165
-0.00649541
-0.0064027
-0.00605067
-0.00581038
-0.00613754
-0.00568724
-0.00587743
-0.00613053
-0.00636719
-0.00598243
-0.00629321
-0.00659482
-0.00658096
-0.00674738
-0.00689242
-0.00718019
-0.00612061
-0.006492
-0.00686825
-0.00631738
-0.00672564
-0.00715627
-0.00727959
-0.00778212
-0.00766371
-0.00838403
-0.00685113
-0.00680533
-0.00745012
-0.0075765
-0.00643683
-0.00563248
-0.00708685
-0.00421157
-0.00842449
-0.00742754
-0.00796972
0.00623551
0.00292507
0.0181315
0.0301497
0.0445337
-0.00603973
-0.0060989
-0.00586219
-0.00590568
-0.00624188
-0.00645118
-0.00608654
-0.00637871
-0.00562353
-0.00562852
-0.00529623
-0.00521633
-0.00586836
-0.0063049
-0.00554789
-0.00623834
-0.00667403
-0.00685804
-0.00668981
-0.00693421
-0.0069687
-0.00699848
-0.00706294
-0.00707741
-0.00676581
-0.00711257
-0.00695524
-0.00746715
-0.0072887
-0.00730768
-0.00771354
-0.00774684
-0.00486366
-0.004607
0.00156672
0.00618904
-0.00508526
-0.00622214
0.00637819
0.00172506
0.0275211
0.0319053
0.0482531
0.0480897
0.0325509
0.0290926
0.0482675
0.0489093
-0.00737582
-0.00814347
-0.00539194
-0.00929979
-0.00847459
-0.00851791
-0.00971779
-0.00971384
0.0198643
0.00357426
0.0462818
0.0322056
-0.00887872
-0.0113125
0.00620725
-0.0108112
-0.00714398
-0.00719693
-0.00714985
-0.00720019
-0.00710663
-0.00711482
-0.00712628
-0.00717006
-0.0070762
-0.00711608
-0.00709368
-0.00704162
-0.00708609
-0.00709891
-0.00708268
-0.0071079
-0.00708158
-0.00703151
-0.00710521
-0.00706153
-0.00700324
-0.00704391
-0.00690762
-0.00696569
-0.00695873
-0.00683036
-0.00681188
-0.00689927
-0.00673191
-0.00684843
-0.00669229
-0.0065771
-0.00693637
-0.00674922
-0.00693532
-0.0066516
-0.0065404
-0.00637828
-0.0063448
-0.00612562
-0.00709482
-0.0071444
-0.00711126
-0.00718897
-0.00717283
-0.00716433
-0.00728127
-0.00737655
-0.00713301
-0.00725725
-0.00707314
-0.0071509
-0.00560478
0.0142416
0.0136617
0.0637098
-0.0070227
-0.00656256
-0.00717646
-0.0063833
-0.00604917
-0.00574326
-0.00565051
-0.00530573
0.0419452
0.0490187
0.10231
0.10865
0.0323087
0.00688238
0.0909188
0.0443133
-0.00667595
-0.00681761
-0.00664658
-0.00680395
-0.00649797
-0.00645991
-0.0066335
-0.00680036
-0.00663646
-0.00680583
-0.00644471
-0.00645262
-0.00627812
-0.00624172
-0.00600933
-0.0059884
-0.00623394
-0.00625586
-0.00599969
-0.00604639
-0.006646
-0.0068139
-0.006661
-0.00682454
-0.00646951
-0.00649373
-0.00667679
-0.00683447
-0.00669174
-0.00684401
-0.0065192
-0.00654412
-0.00628647
-0.00632478
-0.00609781
-0.00615528
-0.0063633
-0.00640057
-0.00621026
-0.00626211
-0.00564078
-0.005678
-0.00521201
-0.00532985
-0.00573546
-0.00582452
-0.00545334
-0.00559807
-0.00456403
-0.00491688
0.00405789
-0.00450123
-0.00516437
-0.00538141
-0.0049112
-0.00519738
-0.00590642
-0.00598859
-0.00571839
-0.00582943
-0.0060633
-0.00613162
-0.00592656
-0.0060128
-0.00554672
-0.00568758
-0.0054046
-0.00557124
-0.00580742
-0.00591157
-0.00571189
-0.00583315
-0.00695881
-0.00689426
-0.00697573
-0.0068235
0.0402761
0.100381
0.0470268
0.106912
-0.00720012
-0.00700995
-0.00762908
-0.00736781
0.0299116
0.0895661
0.00411115
0.0415565
0.113451
0.113316
0.113311
0.113843
0.112733
0.0806919
0.114453
0.0916813
0.112892
0.114118
0.0783119
0.0891288
0.114548
0.0783562
0.0769049
0.0352071
-0.00840916
-0.00816698
-0.00964629
-0.00958422
-0.00763654
0.000440562
-0.00924081
-0.00838646
-0.0112531
-0.0114084
-0.0129403
-0.0133744
-0.0111927
-0.0101524
-0.0131031
-0.0115167
0.0188399
0.0295108
-0.00684252
-0.00488207
0.0177569
0.000716576
-0.00370813
-0.00332156
-0.00781673
-0.00409009
-0.00798768
-0.00174279
-0.00151284
-0.00114616
0.00179985
0.00104029
0.0223278
-0.00455576
0.031657
-0.00521014
-0.0049035
-0.00513786
-0.00518286
-0.00521583
0.0183562
-0.00558055
0.000265113
-0.00524254
-0.00530471
-0.00523015
-0.00506439
-0.00509029
-0.00533118
-0.00549851
-0.00532949
-0.00547069
-0.00564938
-0.00578425
-0.0056214
-0.00576785
-0.00530611
-0.00544542
-0.00521992
-0.00540571
-0.00561004
-0.00577818
-0.00560994
-0.00581572
-0.00453682
-0.00445318
-0.00332844
-0.0036377
-0.00455083
-0.00479504
-0.00403882
-0.00450458
-0.00174362
-0.00259694
-0.000312049
-0.00175931
-0.00342337
-0.00416971
-0.00304727
-0.00403121
-0.00505805
-0.00534072
-0.00491853
-0.00530778
-0.00561501
-0.00587743
-0.00565844
-0.00598243
-0.00477747
-0.00529325
-0.00479736
-0.00539841
-0.00573102
-0.00612061
-0.00589007
-0.00631738
-0.00654772
-0.00695939
-0.00739461
-0.00684175
-0.00721434
-0.00760679
-0.00791294
-0.00868037
-0.00806988
-0.00824623
-0.00718583
-0.00749309
-0.00782685
-0.0075554
-0.00778312
-0.0080716
-0.0082267
-0.00586971
-0.00845354
-0.00474965
0.00138934
0.0298195
0.0157765
0.0460683
0.0493614
0.050498
0.0520629
0.0513772
0.0244297
0.0524297
0.0263467
0.0531782
0.0524587
0.0519484
0.0525914
0.0521192
-0.00788014
-0.00805105
-0.00833033
-0.00807148
-0.00822468
-0.00851088
-0.0087547
-0.00754571
-0.00898113
-0.00974305
-0.00815212
-0.00828882
-0.00855513
-0.00811427
-0.00822713
-0.00843517
-0.00900294
-0.00978442
-0.00876919
-0.00930773
0.0216083
0.0510205
0.00939068
0.0407357
0.0524229
0.0518984
0.0519821
0.0512752
-0.0047129
0.0189748
-0.0100818
-0.00228186
0.0438403
0.0503036
0.0168145
0.0336248
0.0498433
0.0495956
0.0508957
0.0505889
0.049505
0.0496021
0.0503373
0.0501248
0.0515158
0.051164
0.0517124
0.0513573
0.0508463
0.0505357
0.0510413
0.0507478
0.0496933
0.0482539
0.0498124
0.0493017
0.0291347
-0.00128312
0.043288
0.0122887
0.0501268
0.0495511
0.050396
0.0499617
0.0485133
0.020365
0.0493732
0.0228588
0.0515063
0.0511594
0.0508287
0.0504457
0.0508744
0.0506491
0.0502099
0.0501461
0.0496223
0.0490541
0.0421648
0.0454466
0.0488904
0.0491829
0.0456275
0.0427218
0.05043
0.050198
0.0502075
0.0503306
0.04838
0.0193179
0.0398515
0.00859865
0.0497868
0.0439145
0.0344059
0.0175941
0.0196373
-0.00503121
-0.00221877
-0.0108716
-0.0080078
-0.00808541
-0.00821791
-0.00785263
-0.00790097
-0.00797146
-0.00841013
-0.00867127
-0.0080551
-0.00813186
-0.00768063
-0.0077052
-0.00773279
-0.00750231
-0.00751139
-0.00751351
-0.00775144
-0.00773747
-0.00749835
-0.00744621
-0.0089736
-0.00912457
-0.00815478
-0.00804097
-0.00506146
0.00548222
-0.00749427
-0.00646423
-0.00765424
-0.00746295
-0.00733232
-0.00713512
-0.00703129
-0.00635633
-0.00680488
-0.00636826
-0.00732703
-0.007327
-0.00731624
-0.00715867
-0.0071553
-0.00714099
-0.00728715
-0.00722594
-0.00711067
-0.00705544
-0.00699729
-0.00699515
-0.00698343
-0.00684401
-0.00684517
-0.00684016
-0.00695906
-0.00691656
-0.00682579
-0.00679867
-0.00711867
-0.00695512
-0.00696839
-0.00684559
-0.00672151
-0.00644543
-0.00668731
-0.00651598
-0.00685301
-0.00676792
-0.00675798
-0.00670485
-0.00666635
-0.00656495
-0.00664517
-0.00659094
0.0152912
0.0195623
-0.00511162
-0.00412379
0.0196295
0.0155261
-0.00440197
-0.00587507
-0.00556673
-0.00504815
-0.00592806
-0.00567832
-0.00522249
-0.00605258
-0.0057977
-0.00626294
0.00572489
-0.00559996
-0.00752485
-0.00851084
-0.010194
-0.00982696
-0.00886493
-0.00884957
-0.00705849
-0.00775515
-0.00686055
-0.0073442
-0.0081015
-0.00820332
-0.0076461
-0.00778409
-0.00619202
-0.00606431
-0.0063734
-0.00631545
-0.0061514
-0.00643865
-0.00638539
-0.00657346
-0.00649006
-0.00647237
-0.006559
-0.00656654
-0.00653326
-0.00666564
-0.00662378
-0.00672534
-0.00681377
-0.00714533
-0.0068196
-0.00705107
-0.00738057
-0.00750932
-0.00722946
-0.00733918
-0.00683542
-0.00700133
-0.00685101
-0.00697597
-0.00713692
-0.0072273
-0.00708201
-0.00715676
-0.0143536
-0.0152605
-0.014626
-0.0171845
-0.0149401
-0.0131241
-0.0173864
-0.0160408
-0.0123783
-0.0194328
-0.0102416
-0.0187991
-0.0227491
-0.0136869
-0.0232638
0.00449832
-0.0087784
0.00375345
-0.00593574
0.0144223
0.00986204
0.00504772
0.0193311
0.00992735
0.0541645
0.093352
0.118193
0.172042
0.0721089
0.0455459
0.146507
0.118931
-0.0113841
-0.0152084
-0.0123537
-0.0124611
-0.0167762
0.00876049
-0.0120675
-0.0042169
-0.0113716
-0.0107826
-0.0102973
-0.00968805
-0.00976375
-0.00716409
-0.00869088
-0.00693546
0.107204
0.172086
0.0483514
0.106001
0.171979
0.153821
0.118426
0.0880365
0.00224152
0.0229262
-0.00449267
-0.00205597
0.0313647
0.0105962
-0.00291395
-0.00602846
0.00170784
-0.000950489
0.00359301
-0.000854808
-0.00281051
-0.00404798
-0.00318431
-0.00450739
0.00981146
-0.00350353
0.0382461
-0.0102366
-0.00484713
-0.00563367
-0.00857199
-0.00768335
-0.00494396
-0.00559483
-0.00539546
-0.00598397
-0.00611158
-0.00654772
-0.00645183
-0.00684175
-0.00619917
-0.00656178
-0.00741324
-0.00731887
-0.00689116
-0.00718583
-0.00740007
-0.0075554
0.0555564
-0.015338
0.0212509
-0.0136831
-0.0113966
-0.0092745
-0.0108819
-0.00934305
-0.00805363
-0.0103273
-0.00795908
-0.00871449
-0.00956339
-0.00893113
-0.00863311
-0.00844443
-0.00837732
-0.00794506
-0.00858308
-0.0081825
-0.00783273
-0.00788014
-0.00804921
-0.00807148
-0.00850391
-0.00823356
-0.00826757
-0.00813266
-0.00813157
-0.00815212
-0.00808414
-0.00811427
-0.00939332
-0.00893046
-0.00865889
-0.0083616
-0.00813354
-0.00699912
-0.00780292
-0.00711916
-0.00813775
-0.00795713
-0.00778789
-0.00769094
-0.00758882
-0.00717202
-0.007466
-0.0072161
-0.00561108
-0.004291
-0.00632861
-0.00562781
-0.00486733
-0.00648137
-0.00586788
-0.00659174
-0.00669815
-0.00633591
-0.00692971
-0.0067179
-0.00647609
-0.00682635
-0.00676186
-0.00691949
-0.0075408
-0.00749227
-0.00738122
-0.00736224
-0.00735796
-0.00720437
-0.00728501
-0.00718757
-0.0072701
-0.00726626
-0.00719693
-0.00720019
-0.0072204
-0.00715273
-0.00717006
-0.00711608
-0.00702821
-0.00690475
-0.00707211
-0.00698404
-0.00691193
-0.00697615
-0.00696136
-0.00697291
-0.00706868
-0.00699416
-0.00704391
-0.00696569
-0.00695055
-0.00692806
-0.00689927
-0.00684843
-0.0074637
-0.0080282
-0.00716105
-0.00758021
-0.00813896
-0.00812016
-0.00775758
-0.00782011
-0.00714653
-0.00740381
-0.00710257
-0.00726037
-0.00754758
-0.00761524
-0.00736795
-0.00742948
-0.00806069
-0.00800063
-0.0078321
-0.00782488
-0.0079811
-0.0080078
-0.00782839
-0.00785263
-0.00764405
-0.00765448
-0.00746248
-0.00748023
-0.00766397
-0.00768063
-0.00749166
-0.00750231
-0.00707077
-0.00715785
-0.00701112
-0.00705235
-0.00722527
-0.00726929
-0.00708873
-0.00711639
-0.00692702
-0.00693621
-0.00681761
-0.00680395
-0.00694911
-0.0069634
-0.00680036
-0.00680583
-0.00729547
-0.00731172
-0.00713453
-0.00714744
-0.00732128
-0.00732703
-0.00715517
-0.00715867
-0.00697495
-0.00698546
-0.0068139
-0.00682454
-0.00699304
-0.00699729
-0.00683447
-0.0068409

SCALARS U float
LOOKUP_TABLE default
0.0236355
0.02447
0.0236674
0.0245801
0.0252339
0.0254794
0.0236808
0.0244305
0.0250877
0.0258872
0.0263002
0.0263682
0.0269703
0.0256165
0.0259648
0.0238127
0.0244917
0.0250709
0.0240426
0.0246633
0.0251924
0.0255169
0.0257825
0.0255953
0.0258243
0.0265954
0.0273841
0.0264768
0.0274093
0.0260685
0.0258611
0.0259232
0.026897
0.0248889
0.0257476
0.0252867
0.0243264
0.0258123
0.025552
0.0258234
0.0255385
0.0249607
0.0240302
0.0249288
0.0239858
0.0243599
0.0249366
0.0254451
0.024727
0.0252815
0.0258052
0.0258463
0.0260858
0.0262516
0.0265549
0.0250833
0.0256483
0.0262304
0.0253576
0.0259682
0.0266523
0.0267754
0.0272043
0.0273508
0.0279736
0.0260979
0.0258166
0.0266309
0.0263902
0.0251883
0.0241933
0.025751
0.0246703
0.0274071
0.0272594
0.0283833
0.0284115
0.0266336
0.0254438
0.0278576
0.0265569
0.0234155
0.0239939
0.0216401
0.0218194
0.0230229
0.0214847
0.0197732
0.0195244
0.0180449
0.0174402
0.0198714
0.0183575
0.0228018
0.0213691
0.0227477
0.0213034
0.0198657
0.0184391
0.0197808
0.0183222
0.0166455
0.0158263
0.0156775
0.0147945
0.0170939
0.0161774
0.0151518
0.0143149
0.015012
0.0142653
0.0156428
0.0154781
0.017222
0.016313
0.0170599
0.016102
0.0157649
0.0156057
0.015517
0.0153739
0.0228656
0.0212991
0.0231751
0.0213742
0.0196335
0.0180286
0.0194417
0.0175806
0.0237039
0.0215507
0.024496
0.0218531
0.01922
0.0169914
0.0189671
0.0162448
0.0166325
0.0155706
0.0159748
0.0147739
0.0149235
0.0148035
0.0140629
0.0139916
0.0151098
0.0137524
0.0140258
0.0124998
0.0129857
0.0129477
0.0116646
0.0114764
0.025468
0.0261521
0.0269701
0.0253296
0.0260896
0.0270447
0.027867
0.0287555
0.028166
0.0294053
0.0248782
0.0256672
0.0267222
0.0240546
0.0247841
0.0258764
0.0280808
0.0298059
0.0275022
0.0299521
0.0294813
0.0298247
0.0306227
0.0315429
0.0294646
0.0280889
0.0316278
0.0302734
0.0318355
0.0338117
0.0333044
0.0369877
0.0347471
0.0335033
0.0391683
0.0379656
0.0228286
0.0233871
0.0244426
0.0211923
0.0214849
0.0224062
0.0263765
0.0298062
0.0245646
0.0288268
0.0192428
0.0191334
0.0196658
0.0170803
0.016433
0.0161597
0.0215495
0.0255327
0.0167904
0.0184747
0.0348893
0.0405503
0.035052
0.0410562
0.0436906
0.0417998
0.0429708
0.0391331
0.03081
0.0339638
0.0199349
0.0180394
0.0323748
0.0273345
0.0131066
0.00990561
0.0256272
0.0223189
0.0272885
0.0230043
0.0186686
0.0152885
0.0182184
0.0139136
0.029741
0.0239667
0.0329922
0.0250036
0.0174569
0.011779
0.0160514
0.00857204
0.0126675
0.0110033
0.0108244
0.00917757
0.0101723
0.00974955
0.00865635
0.00845915
0.00806148
0.00662731
0.00409266
0.00299607
0.00688918
0.00774049
0.00444952
0.00701485
0.0352813
0.0255049
0.032327
0.0246782
0.0149496
0.00624635
0.0170812
0.0103311
0.023142
0.0218356
0.0114515
0.0176844
0.0216228
0.0204209
0.0254917
0.0311396
0.00091554
-0.000317511
0.00482498
0.00193069
0.00196013
0.00622177
0.00279507
0.00707082
0.0171459
0.0128355
0.0324677
0.0292584
0.0104458
0.0121748
0.0245416
0.0225946
0.0151562
0.0144912
0.0154729
0.0148599
0.015621
0.0159803
0.015827
0.015244
0.0160844
0.015554
0.0164091
0.0166972
0.0158101
0.0163212
0.01569
0.0164827
0.016994
0.0174777
0.0176598
0.0186014
0.0161474
0.0157527
0.0160837
0.0158962
0.0166271
0.0162864
0.0161131
0.0161198
0.0164106
0.0165266
0.0160577
0.0162408
0.0172842
0.0165296
0.0182465
0.0167764
0.0159317
0.0160086
0.0155775
0.0155698
0.0152774
0.0165488
0.0146777
0.0166981
0.0187437
0.0206259
0.0203837
0.0231009
0.0137109
0.0161001
0.0116925
0.0124746
0.0200182
0.0219646
0.0129336
0.0123698
0.0197616
0.016578
0.0208847
0.0153119
0.0141587
0.0142212
0.0113762
0.0115811
0.0202519
0.0174789
0.0144948
0.0200024
0.0146772
0.013849
0.0239387
0.0252245
0.0170376
0.0171616
0.0178875
0.017963
0.0169145
0.0178659
0.0188508
0.0188632
0.0198602
0.0198169
0.0189168
0.0199881
0.0168368
0.0179765
0.016786
0.0182886
0.0191376
0.0202649
0.0195863
0.0207461
0.0208558
0.0207804
0.0218226
0.0217434
0.0210068
0.0219656
0.0227501
0.0226989
0.0236355
0.0236257
0.0228566
0.0236808