# vtk DataFile Version 2.0
Gerris simulation version 1.3.2 (131206-155120)
ASCII
DATASET UNSTRUCTURED_GRID

POINTS 1089 float
-0.5 0.46875 0
-0.46875 0.46875 0
-0.5 0.5 0
-0.46875 0.5 0
-0.4375 0.46875 0
-0.4375 0.5 0
-0.5 0.4375 0
-0.46875 0.4375 0
-0.4375 0.4375 0
-0.40625 0.46875 0
-0.40625 0.5 0
-0.375 0.46875 0
-0.375 0.5 0
-0.40625 0.4375 0
-0.375 0.4375 0
-0.5 0.40625 0
-0.46875 0.40625 0
-0.4375 0.40625 0
-0.5 0.375 0
-0.46875 0.375 0
-0.4375 0.375 0
-0.40625 0.40625 0
-0.375 0.40625 0
-0.40625 0.375 0
-0.375 0.375 0
-0.34375 0.46875 0
-0.34375 0.5 0
-0.3125 0.46875 0
-0.3125 0.5 0
-0.34375 0.4375 0
-0.3125 0.4375 0
-0.28125 0.46875 0
-0.28125 0.5 0
-0.25 0.46875 0
-0.25 0.5 0
-0.28125 0.4375 0
-0.25 0.4375 0
-0.34375 0.40625 0
-0.3125 0.40625 0
-0.34375 0.375 0
-0.3125 0.375 0
-0.28125 0.40625 0
-0.25 0.40625 0
-0.28125 0.375 0
-0.25 0.375 0
-0.5 0.34375 0
-0.46875 0.34375 0
-0.4375 0.34375 0
-0.5 0.3125 0
-0.46875 0.3125 0
-0.4375 0.3125 0
-0.40625 0.34375 0
-0.375 0.34375 0
-0.40625 0.3125 0
-0.375 0.3125 0
-0.5 0.28125 0
-0.46875 0.28125 0
-0.4375 0.28125 0
-0.5 0.25 0
-0.46875 0.25 0
-0.4375 0.25 0
-0.40625 0.28125 0
-0.375 0.28125 0
-0.40625 0.25 0
-0.375 0.25 0
-0.34375 0.34375 0
-0.3125 0.34375 0
-0.34375 0.3125 0
-0.3125 0.3125 0
-0.28125 0.34375 0
-0.25 0.34375 0
-0.28125 0.3125 0
-0.25 0.3125 0
-0.34375 0.28125 0
-0.3125 0.28125 0
-0.34375 0.25 0
-0.3125 0.25 0
-0.28125 0.28125 0
-0.25 0.28125 0
-0.28125 0.25 0
-0.25 0.25 0
-0.21875 0.46875 0
-0.21875 0.5 0
-0.1875 0.46875 0
-0.1875 0.5 0
-0.21875 0.4375 0
-0.1875 0.4375 0
-0.15625 0.46875 0
-0.15625 0.5 0
-0.125 0.46875 0
-0.125 0.5 0
-0.15625 0.4375 0
-0.125 0.4375 0
-0.21875 0.40625 0
-0.1875 0.40625 0
-0.21875 0.375 0
-0.1875 0.375 0
-0.15625 0.40625 0
-0.125 0.40625 0
-0.15625 0.375 0
-0.125 0.375 0
-0.09375 0.46875 0
-0.09375 0.5 0
-0.0625 0.46875 0
-0.0625 0.5 0
-0.09375 0.4375 0
-0.0625 0.4375 0
-0.03125 0.46875 0
-0.03125 0.5 0
0 0.46875 0
0 0.5 0
-0.03125 0.4375 0
0 0.4375 0
-0.09375 0.40625 0
-0.0625 0.40625 0
-0.09375 0.375 0
-0.0625 0.375 0
-0.03125 0.40625 0
0 0.40625 0
-0.03125 0.375 0
0 0.375 0
-0.21875 0.34375 0
-0.1875 0.34375 0
-0.21875 0.3125 0
-0.1875 0.3125 0
-0.15625 0.34375 0
-0.125 0.34375 0
-0.15625 0.3125 0
-0.125 0.3125 0
-0.21875 0.28125 0
-0.1875 0.28125 0
-0.21875 0.25 0
-0.1875 0.25 0
-0.15625 0.28125 0
-0.125 0.28125 0
-0.15625 0.25 0
-0.125 0.25 0
-0.09375 0.34375 0
-0.0625 0.34375 0
-0.09375 0.3125 0
-0.0625 0.3125 0
-0.03125 0.34375 0
0 0.34375 0
-0.03125 0.3125 0
0 0.3125 0
-0.09375 0.28125 0
-0.0625 0.28125 0
-0.09375 0.25 0
-0.0625 0.25 0
-0.03125 0.28125 0
0 0.28125 0
-0.03125 0.25 0
0 0.25 0
-0.5 0.21875 0
-0.46875 0.21875 0
-0.4375 0.21875 0
-0.5 0.1875 0
-0.46875 0.1875 0
-0.4375 0.1875 0
-0.40625 0.21875 0
-0.375 0.21875 0
-0.40625 0.1875 0
-0.375 0.1875 0
-0.5 0.15625 0
-0.46875 0.15625 0
-0.4375 0.15625 0
-0.5 0.125 0
-0.46875 0.125 0
-0.4375 0.125 0
-0.40625 0.15625 0
-0.375 0.15625 0
-0.40625 0.125 0
-0.375 0.125 0
-0.34375 0.21875 0
-0.3125 0.21875 0
-0.34375 0.1875 0
-0.3125 0.1875 0
-0.28125 0.21875 0
-0.25 0.21875 0
-0.28125 0.1875 0
-0.25 0.1875 0
-0.34375 0.15625 0
-0.3125 0.15625 0
-0.34375 0.125 0
-0.3125 0.125 0
-0.28125 0.15625 0
-0.25 0.15625 0
-0.28125 0.125 0
-0.25 0.125 0
-0.5 0.09375 0
-0.46875 0.09375 0
-0.4375 0.09375 0
-0.5 0.0625 0
-0.46875 0.0625 0
-0.4375 0.0625 0
-0.40625 0.09375 0
-0.375 0.09375 0
-0.40625 0.0625 0
-0.375 0.0625 0
-0.5 0.03125 0
-0.46875 0.03125 0
-0.4375 0.03125 0
-0.5 0 0
-0.46875 0 0
-0.4375 0 0
-0.40625 0.03125 0
-0.375 0.03125 0
-0.40625 0 0
-0.375 0 0
-0.34375 0.09375 0
-0.3125 0.09375 0
-0.34375 0.0625 0
-0.3125 0.0625 0
-0.28125 0.09375 0
-0.25 0.09375 0
-0.28125 0.0625 0
-0.25 0.0625 0
-0.34375 0.03125 0
-0.3125 0.03125 0
-0.34375 0 0
-0.3125 0 0
-0.28125 0.03125 0
-0.25 0.03125 0
-0.28125 0 0
-0.25 0 0
-0.21875 0.21875 0
-0.1875 0.21875 0
-0.21875 0.1875 0
-0.1875 0.1875 0
-0.15625 0.21875 0
-0.125 0.21875 0
-0.15625 0.1875 0
-0.125 0.1875 0
-0.21875 0.15625 0
-0.1875 0.15625 0
-0.21875 0.125 0
-0.1875 0.125 0
-0.15625 0.15625 0
-0.125 0.15625 0
-0.15625 0.125 0
-0.125 0.125 0
-0.09375 0.21875 0
-0.0625 0.21875 0
-0.09375 0.1875 0
-0.0625 0.1875 0
-0.03125 0.21875 0
0 0.21875 0
-0.03125 0.1875 0
0 0.1875 0
-0.09375 0.15625 0
-0.0625 0.15625 0
-0.09375 0.125 0
-0.0625 0.125 0
-0.03125 0.15625 0
0 0.15625 0
-0.03125 0.125 0
0 0.125 0
-0.21875 0.09375 0
-0.1875 0.09375 0
-0.21875 0.0625 0
-0.1875 0.0625 0
-0.15625 0.09375 0
-0.125 0.09375 0
-0.15625 0.0625 0
-0.125 0.0625 0
-0.21875 0.03125 0
-0.1875 0.03125 0
-0.21875 0 0
-0.1875 0 0
-0.15625 0.03125 0
-0.125 0.03125 0
-0.15625 0 0
-0.125 0 0
-0.09375 0.09375 0
-0.0625 0.09375 0
-0.09375 0.0625 0
-0.0625 0.0625 0
-0.03125 0.09375 0
0 0.09375 0
-0.03125 0.0625 0
0 0.0625 0
-0.09375 0.03125 0
-0.0625 0.03125 0
-0.09375 0 0
-0.0625 0 0
-0.03125 0.03125 0
0 0.03125 0
-0.03125 0 0
0 0 0
0.03125 0.46875 0
0.03125 0.5 0
0.0625 0.46875 0
0.0625 0.5 0
0.03125 0.4375 0
0.0625 0.4375 0
0.09375 0.46875 0
0.09375 0.5 0
0.125 0.46875 0
0.125 0.5 0
0.09375 0.4375 0
0.125 0.4375 0
0.03125 0.40625 0
0.0625 0.40625 0
0.03125 0.375 0
0.0625 0.375 0
0.09375 0.40625 0
0.125 0.40625 0
0.09375 0.375 0
0.125 0.375 0
0.15625 0.46875 0
0.15625 0.5 0
0.1875 0.46875 0
0.1875 0.5 0
0.15625 0.4375 0
0.1875 0.4375 0
0.21875 0.46875 0
0.21875 0.5 0
0.25 0.46875 0
0.25 0.5 0
0.21875 0.4375 0
0.25 0.4375 0
0.15625 0.40625 0
0.1875 0.40625 0
0.15625 0.375 0
0.1875 0.375 0
0.21875 0.40625 0
0.25 0.40625 0
0.21875 0.375 0
0.25 0.375 0
0.03125 0.34375 0
0.0625 0.34375 0
0.03125 0.3125 0
0.0625 0.3125 0
0.09375 0.34375 0
0.125 0.34375 0
0.09375 0.3125 0
0.125 0.3125 0
0.03125 0.28125 0
0.0625 0.28125 0
0.03125 0.25 0
0.0625 0.25 0
0.09375 0.28125 0
0.125 0.28125 0
0.09375 0.25 0
0.125 0.25 0
0.15625 0.34375 0
0.1875 0.34375 0
0.15625 0.3125 0
0.1875 0.3125 0
0.21875 0.34375 0
0.25 0.34375 0
0.21875 0.3125 0
0.25 0.3125 0
0.15625 0.28125 0
0.1875 0.28125 0
0.15625 0.25 0
0.1875 0.25 0
0.21875 0.28125 0
0.25 0.28125 0
0.21875 0.25 0
0.25 0.25 0
0.28125 0.46875 0
0.28125 0.5 0
0.3125 0.46875 0
0.3125 0.5 0
0.28125 0.4375 0
0.3125 0.4375 0
0.34375 0.46875 0
0.34375 0.5 0
0.375 0.46875 0
0.375 0.5 0
0.34375 0.4375 0
0.375 0.4375 0
0.28125 0.40625 0
0.3125 0.40625 0
0.28125 0.375 0
0.3125 0.375 0
0.34375 0.40625 0
0.375 0.40625 0
0.34375 0.375 0
0.375 0.375 0
0.40625 0.46875 0
0.40625 0.5 0
0.4375 0.46875 0
0.4375 0.5 0
0.40625 0.4375 0
0.4375 0.4375 0
0.46875 0.46875 0
0.46875 0.5 0
0.5 0.46875 0
0.5 0.5 0
0.46875 0.4375 0
0.5 0.4375 0
0.40625 0.40625 0
0.4375 0.40625 0
0.40625 0.375 0
0.4375 0.375 0
0.46875 0.40625 0
0.5 0.40625 0
0.46875 0.375 0
0.5 0.375 0
0.28125 0.34375 0
0.3125 0.34375 0
0.28125 0.3125 0
0.3125 0.3125 0
0.34375 0.34375 0
0.375 0.34375 0
0.34375 0.3125 0
0.375 0.3125 0
0.28125 0.28125 0
0.3125 0.28125 0
0.28125 0.25 0
0.3125 0.25 0
0.34375 0.28125 0
0.375 0.28125 0
0.34375 0.25 0
0.375 0.25 0
0.40625 0.34375 0
0.4375 0.34375 0
0.40625 0.3125 0
0.4375 0.3125 0
0.46875 0.34375 0
0.5 0.34375 0
0.46875 0.3125 0
0.5 0.3125 0
0.40625 0.28125 0
0.4375 0.28125 0
0.40625 0.25 0
0.4375 0.25 0
0.46875 0.28125 0
0.5 0.28125 0
0.46875 0.25 0
0.5 0.25 0
0.03125 0.21875 0
0.0625 0.21875 0
0.03125 0.1875 0
0.0625 0.1875 0
0.09375 0.21875 0
0.125 0.21875 0
0.09375 0.1875 0
0.125 0.1875 0
0.03125 0.15625 0
0.0625 0.15625 0
0.03125 0.125 0
0.0625 0.125 0
0.09375 0.15625 0
0.125 0.15625 0
0.09375 0.125 0
0.125 0.125 0
0.15625 0.21875 0
0.1875 0.21875 0
0.15625 0.1875 0
0.1875 0.1875 0
0.21875 0.21875 0
0.25 0.21875 0
0.21875 0.1875 0
0.25 0.1875 0
0.15625 0.15625 0
0.1875 0.15625 0
0.15625 0.125 0
0.1875 0.125 0
0.21875 0.15625 0
0.25 0.15625 0
0.21875 0.125 0
0.25 0.125 0
0.03125 0.09375 0
0.0625 0.09375 0
0.03125 0.0625 0
0.0625 0.0625 0
0.09375 0.09375 0
0.125 0.09375 0
0.09375 0.0625 0
0.125 0.0625 0
0.03125 0.03125 0
0.0625 0.03125 0
0.03125 0 0
0.0625 0 0
0.09375 0.03125 0
0.125 0.03125 0
0.09375 0 0
0.125 0 0
0.15625 0.09375 0
0.1875 0.09375 0
0.15625 0.0625 0
0.1875 0.0625 0
0.21875 0.09375 0
0.25 0.09375 0
0.21875 0.0625 0
0.25 0.0625 0
0.15625 0.03125 0
0.1875 0.03125 0
0.15625 0 0
0.1875 0 0
0.21875 0.03125 0
0.25 0.03125 0
0.21875 0 0
0.25 0 0
0.28125 0.21875 0
0.3125 0.21875 0
0.28125 0.1875 0
0.3125 0.1875 0
0.34375 0.21875 0
0.375 0.21875 0
0.34375 0.1875 0
0.375 0.1875 0
0.28125 0.15625 0
0.3125 0.15625 0
0.28125 0.125 0
0.3125 0.125 0
0.34375 0.15625 0
0.375 0.15625 0
0.34375 0.125 0
0.375 0.125 0
0.40625 0.21875 0
0.4375 0.21875 0
0.40625 0.1875 0
0.4375 0.1875 0
0.46875 0.21875 0
0.5 0.21875 0
0.46875 0.1875 0
0.5 0.1875 0
0.40625 0.15625 0
0.4375 0.15625 0
0.40625 0.125 0
0.4375 0.125 0
0.46875 0.15625 0
0.5 0.15625 0
0.46875 0.125 0
0.5 0.125 0
0.28125 0.09375 0
0.3125 0.09375 0
0.28125 0.0625 0
0.3125 0.0625 0
0.34375 0.09375 0
0.375 0.09375 0
0.34375 0.0625 0
0.375 0.0625 0
0.28125 0.03125 0
0.3125 0.03125 0
0.28125 0 0
0.3125 0 0
0.34375 0.03125 0
0.375 0.03125 0
0.34375 0 0
0.375 0 0
0.40625 0.09375 0
0.4375 0.09375 0
0.40625 0.0625 0
0.4375 0.0625 0
0.46875 0.09375 0
0.5 0.09375 0
0.46875 0.0625 0
0.5 0.0625 0
0.40625 0.03125 0
0.4375 0.03125 0
0.40625 0 0
0.4375 0 0
0.46875 0.03125 0
0.5 0.03125 0
0.46875 0 0
0.5 0 0
-0.5 -0.03125 0
-0.46875 -0.03125 0
-0.4375 -0.03125 0
-0.5 -0.0625 0
-0.46875 -0.0625 0
-0.4375 -0.0625 0
-0.40625 -0.03125 0
-0.375 -0.03125 0
-0.40625 -0.0625 0
-0.375 -0.0625 0
-0.5 -0.09375 0
-0.46875 -0.09375 0
-0.4375 -0.09375 0
-0.5 -0.125 0
-0.46875 -0.125 0
-0.4375 -0.125 0
-0.40625 -0.09375 0
-0.375 -0.09375 0
-0.40625 -0.125 0
-0.375 -0.125 0
-0.34375 -0.03125 0
-0.3125 -0.03125 0
-0.34375 -0.0625 0
-0.3125 -0.0625 0
-0.28125 -0.03125 0
-0.25 -0.03125 0
-0.28125 -0.0625 0
-0.25 -0.0625 0
-0.34375 -0.09375 0
-0.3125 -0.09375 0
-0.34375 -0.125 0
-0.3125 -0.125 0
-0.28125 -0.09375 0
-0.25 -0.09375 0
-0.28125 -0.125 0
-0.25 -0.125 0
-0.5 -0.15625 0
-0.46875 -0.15625 0
-0.4375 -0.15625 0
-0.5 -0.1875 0
-0.46875 -0.1875 0
-0.4375 -0.1875 0
-0.40625 -0.15625 0
-0.375 -0.15625 0
[...]
POINT_DATA 1089
SCALARS T float
LOOKUP_TABLE default
0
0
0
0
0
0
0
0
0
0
0
0
0
0
0
0
0
0
0
0
0
0
0
0
0
0
0
0
0
0
0
0
0
0
0
0
0
0
0
0
0
0
0
0
0
0
0
0
0
0
0
0
0
0
0
0
0
0
0
0
0
0
0
0
0
0
0
0
0
0
0
0
0
0
0
0
0
0
0
0
0
0
0
0
0
0
0
0
0
0
0
0
0
0
0
0
0
0
0
0
0
0
0
0
0
0
0
0
0
0
0
0
0
0
0
0
0
0
0
0
0
0
0
0
0
0
0
0
0
0
0
0
0
0
0
0
0
0
0
0
0
0
0
0
0
0
0
0
0
0
0
0
0
0
0
0
0
0
0
0
0
0
0
0
0
0
0
0
0
0
0
0
0
0
0
0
0
0
0
0
0
0
0
0
0
0
0
0
0
0
0
0
0
0
0
0
0
0
0
0
0
0
0
0
0
0
0.069132
0
0.245976
0
0.02068
0.104036
0.368436
0.108026
0.179182
0.601745
0.679182
0.422695
0.847283
0.745503
0.999527
0.99372
1
1
1
0
0
0
0
0
0
0
0
0
0
0
0
0
0
0
0
0
0
0
0
0
0
0
0
0
0
0
0
0
0
0
0
0.122633
0.0307962
0.620285
0.411715
0
0
0.134781
0.00151466
0.997652
0.880919
1
1
0.488966
0.1057
0.817291
0.317291
0
0
0
0
0
0
0
0
0
0
0
0
0
0
0
0
0
0
0
0
0
0
0
0
0
0
0
0
0
0
0
0
0
0
0
0
0
0
0
0
0
0
0
0
0
0
0
0
0
0
0
0
0
0
0
0
0
0
0
0
0
0
0
0
0
0
0.00281277
0.0959649
0
3.42609e-08
0.215374
0.286795
0
0
0
0
0
0
0
0
3.42609e-08
0
0.170652
0.00607823
0
0
0
0
0
0
0
0
0
0
0
0
0
0
0
0
0
0
0
0
0
0
0
0
0
0
0
0
0
0
0
0
0
0
0
0
0
0
0
0
0
0
0
0
0
0
0
0
0
0
0
0
0
0
0
0
0
0
0
0
0
0
0
0
0
0
0
0
0
0
0
0
0
0
0
0
0.0943395
0.437492
0.219564
0.719564
0.715374
0.786794
1
0.998082
0.212454
0.712454
0.168929
0.668929
1
0.966059
1
0.926756
0.443162
0.0285899
0.52819
0.0301084
0
0
0
0
0.473665
0.00760608
0.426765
9.35872e-06
0
0
0
0
0.207688
0.707688
0.252441
0.752441
1
0.953801
1
0.995022
0.174966
0.660775
0.0457015
0.298859
0.985809
0.922919
0.552082
0.475284
0.461377
0.00757534
0.526323
0.0313005
0
0
0
0
0.448196
0.0252764
0.17791
0.00155124
0
0
0
0
0
0
0
0
0
0
0
0
0
0
0
0
0
0
0
0
0
0
0
0
0
0
0
0
0
0
0
0
0
0
0
0
0
0
0
0
0
0
0
0
0
0
0
0
0
0
0
0
0
0
0
0
0
0
0
0
0
0
0
0
0
0
0
0
0
0
0
0
0
0
0
0.38516
0
0.38058
0
0
0
0
0
0
0
0.266747
0
0.141454
0.88516
1
0.88058
1
1
1
1
1
0.766747
1
0.641454
1
1
1
1
1
0
0
0
0
0
0
0
0.102504
0
0.190992
0
0
0
0
0
0
0
0.333089
0
0.400593
0.602504
1
0.690992
1
1
1
1
1
0.833089
1
0.900593
1
1
1
1
1
1
1
1
1
0.958043
0.458043
0.954731
0.454731
1
1
1
1
0.845958
0.345958
0.719784
0.219784
0
0
0
0
0
0
0
0
0
0
0
0
0
0
0
0
1
1
1
1
0.675172
0.175172
0.762233
0.262233
1
1
1
1
0.905113
0.405155
0.97367
0.474059
0
0
0
0
0
0
0
0
4.2272e-05
0
0.000389324
0
0
0
0
0
0
0
0
0
0
0
0
0.341602
0
0.158201
0
0
0
0
0
0
0
0.0195628
0
0
0.841602
1
0.625793
0.967593
1
1
1
1
0.258518
0.636378
0.0213628
0.168785
0.86628
0.94233
0.36628
0.44233
0
0
0
0
0
0
0
0
0
0
0
0
0
0
0
0
0
0
0
0
0
0
0
0
0
0
0
0
0
0
0
0
0
0
0
0
1
1
1
0.983915
0.91439
0.414737
0.699013
0.215098
0.886306
0.682877
0.386306
0.198962
0.309988
0.0399444
0.0361281
0
0.000347052
0
0
0
0
0
0
0
0
0
0
0
0
0
0
0
0
0
0
0
0
0
0
0
0
0
0
0
0
0
0
0
0
0
0
0
0
0
0
0
0
0
0
0
0
0
0
0
0
0.0173483
0
0
0.0662727
0.0523643
0
0
0
0
0
0
0
0
0
0
0.00343987
0
0
0
0
0
0
0
0
0
0
0
0
0
0
0
0.00551718
0.116708
0.121245
0.482436
0.263819
0.210083
0.763819
0.69837
0.274962
0.774962
0.224838
0.719858
1
0.988287
0.995021
0.944017
0.0574548
0
0.316204
0.0204621
0
0
0
0
0.560702
0.0724149
0.502851
0.058834
0
0
0
0
0
0
0
0
0
0
0
0
0
0
0
0
0
0
0
0
0
0
0
0
0
0
0
0
0
0
0
0
0
0
0
0
0
0
0
0
0
0
0
0
0
0
0
0
0
0
0
0
0
0
0
0
0
0
0
0
0
0
0
0
0
0
0
0
0.0656035
0.337007
0
0.0263828
0.58254
0.513415
0.0875196
0.0693973
0
0
0
0
0
0
0
0
0.209159
0.00688125
0.00826048
0
0
0
0
0
0
0
0
0
0
0
0
0
0
0
0
0
0
0
0
0
0
0
0
0
0
0
0
0
0
0
0
0
0
0
0
0
0
0
0
0
0
0
0
0
0
0
0
0
0
0
0
0
0
0
0
0
0
0
0
0
0
0
0
0
0
0
0
0
0
0
0
0
0
0
0
0
0
0
0
0
0
0
0
0
0
0
0
0
0
0
0
0
0
0
0
0
0
0
0
0
0
0
0
0
0
0
0
0

SCALARS P float
LOOKUP_TABLE default
-0.0108332
-0.0110829
-0.0107593
-0.0110476
-0.01138
-0.0114068
-0.0108783
-0.011086
-0.0113372
-0.0117041
-0.0118087
-0.0120321
-0.012227
-0.011608
-0.011877
-0.0108932
-0.0110713
-0.0112927
-0.0108788
-0.0110437
-0.0112518
-0.01153
-0.0117627
-0.0114735
-0.0116879
-0.012338
-0.012629
-0.0125841
-0.0129475
-0.0121229
-0.0123232
-0.0127574
-0.0131664
-0.012854
-0.0132812
-0.0124688
-0.0125587
-0.0119723
-0.0121438
-0.011878
-0.0120317
-0.0122711
-0.0123569
-0.0121449
-0.0122217
-0.0108273
-0.0109998
-0.0112137
-0.0107284
-0.0109341
-0.0111754
-0.0114376
-0.0116502
-0.011421
-0.0116483
-0.0105735
-0.0108416
-0.0111349
-0.0103604
-0.010721
-0.0110924
-0.0114235
-0.0116841
-0.0114475
-0.0117634
-0.0118341
-0.0119783
-0.011839
-0.0119806
-0.0120772
-0.0121337
-0.0120622
-0.0120819
-0.0118956
-0.0120432
-0.012013
-0.0121806
-0.0121043
-0.0120691
-0.0122238
-0.0121186
-0.0128628
-0.0132539
-0.0128202
-0.0131438
-0.0125963
-0.0126077
-0.0127485
-0.0129694
-0.0126686
-0.012749
-0.0126154
-0.0126368
-0.0124111
-0.0124555
-0.0122744
-0.0123223
-0.0125111
-0.0125952
-0.0123876
-0.0124973
-0.0126144
-0.0125517
-0.0125961
-0.0123957
-0.0126916
-0.0127945
-0.012612
-0.012282
-0.0126396
-0.0121935
-0.0129432
-0.0131038
-0.0127326
-0.0129467
-0.0126879
-0.0129901
-0.0132321
-0.0135758
-0.0134316
-0.014062
-0.01216
-0.0121748
-0.0120522
-0.0119919
-0.0122072
-0.0122977
-0.0119382
-0.0119418
-0.0119527
-0.0117679
-0.0118866
-0.0115157
-0.0115536
-0.0113712
-0.0110365
-0.0105224
-0.0124925
-0.0128567
-0.0120698
-0.0124556
-0.0134995
-0.0145095
-0.0133213
-0.0147641
-0.011319
-0.0116206
-0.0101036
-0.0101333
-0.0126677
-0.0145701
-0.0113212
-0.0141034
-0.010096
-0.0105761
-0.0110499
-0.00979379
-0.0104115
-0.0110087
-0.0114965
-0.011894
-0.0115722
-0.0120835
-0.00946678
-0.0102276
-0.0109624
-0.00912266
-0.0100115
-0.0108856
-0.0116674
-0.0123379
-0.0117511
-0.0126294
-0.0122039
-0.0124191
-0.0124832
-0.0127951
-0.012461
-0.0122749
-0.0128703
-0.0125933
-0.012869
-0.0133513
-0.0133356
-0.0141285
-0.0135043
-0.0131223
-0.0144837
-0.01402
-0.00874716
-0.00973268
-0.0107519
-0.0082729
-0.00929583
-0.0104321
-0.011826
-0.0130053
-0.0117161
-0.0132016
-0.0076128
-0.00860634
-0.0098539
-0.00663747
-0.00747188
-0.00876215
-0.0114639
-0.00750442
-0.0107797
0.00740295
-0.0139731
-0.013285
-0.00607578
0.014474
-0.00663581
-0.000463226
0.0329272
0.0392037
0.0191708
0.0520779
0.044433
0.0615386
0.0631536
0.0631466
0.0603307
0.0595938
-0.0119021
-0.0112706
-0.0120675
-0.0111089
-0.0103906
-0.0093334
-0.00969858
-0.00788971
-0.0124769
-0.0111649
-0.0133479
-0.0116871
-0.00913167
-0.0063963
-0.00903992
-0.00549751
-0.00821436
-0.00745471
-0.00564556
-0.0032438
-0.00812853
-0.0114341
-0.00168559
-0.00313571
-0.00255885
0.00248112
-0.000202318
0.00725148
0.00890263
0.0139708
0.0183465
0.0299443
-0.00458589
-0.0103261
0.0348481
0.018994
-0.00998032
-0.00628391
-0.00106334
-0.00811404
0.0635889
0.0549804
0.0602461
0.0614847
0.0252484
-0.00195666
0.0494986
0.0132781
-0.000934084
0.00599833
-0.00385306
0.000664959
0.0152223
0.0233489
0.00433301
0.00466161
-0.00661932
-0.00354709
-0.00868075
-0.0061641
-0.0026667
-0.00527519
-0.00613933
-0.00914138
-0.0126397
-0.0120989
-0.0125884
-0.0119721
-0.0132503
-0.0133541
-0.012492
-0.0117981
-0.0122527
-0.0115484
-0.0134348
-0.0132037
-0.0139913
-0.0143545
-0.014906
-0.0155741
-0.0147437
-0.0144656
-0.0165024
-0.0162111
-0.011996
-0.0112944
-0.0118108
-0.0110875
-0.0129299
-0.0128024
-0.0115666
-0.0108823
-0.0112903
-0.0106816
-0.0124778
-0.0120684
-0.0141669
-0.014204
-0.0160103
-0.016405
-0.0136996
-0.0130492
-0.0154141
-0.0142802
-0.0158919
-0.0167812
-0.0169014
-0.0180009
-0.0185719
-0.0185665
-0.0208925
-0.0215067
-0.0177903
-0.0188989
-0.019064
-0.00358154
-0.0200103
-0.028839
0.0171129
0.0223965
-0.018969
-0.0198983
-0.0233089
-0.0247056
-0.0176785
-0.0156769
-0.0200377
-0.0168416
-0.0364384
-0.0310988
-0.00740561
-0.0319865
-0.0220202
-0.0172981
-0.0203878
-0.0155262
-0.0110167
-0.0104995
-0.0107775
-0.0103516
-0.0116442
-0.0112608
-0.0105971
-0.0102523
-0.0104911
-0.010213
-0.0109588
-0.010757
-0.01238
-0.011783
-0.0131996
-0.0122943
-0.0113148
-0.0109922
-0.011616
-0.0111577
-0.010465
-0.010241
-0.010517
-0.0103392
-0.0106577
-0.0106527
-0.0106424
-0.0105082
-0.0108332
-0.0107321
-0.0107305
-0.0108783
-0.010808
-0.0107439
-0.0108897
-0.0107761
-0.0107792
-0.0108932
-0.0107825
-0.0108788
-0.0139787
-0.0126799
-0.0144358
-0.0127545
-0.0117739
-0.0111914
-0.0116705
-0.0110187
-0.0142465
-0.0123191
-0.0127218
-0.0110632
-0.0111874
-0.010569
-0.0101793
-0.00977554
-0.0108618
-0.0107234
-0.0106773
-0.0105568
-0.0107256
-0.0108273
-0.0105908
-0.0107284
-0.0102947
-0.0102522
-0.00968462
-0.00979757
-0.010364
-0.0105735
-0.0100404
-0.0103604
-0.000492047
0.0515243
0.0253147
0.0838342
0.0911419
0.108348
0.113304
0.114901
0.0345139
0.0629289
0.0414802
0.0476158
0.0781972
0.0765976
0.0533572
0.0571195
0.0535593
-0.0181429
0.064827
0.00542817
-0.0160793
-0.0119879
-0.00380475
-0.00456929
0.0516031
0.0264603
0.0486228
0.0362216
0.0138707
0.00568029
0.0228224
0.0114338
0.0364916
0.0532785
0.0278352
0.0745252
0.0656238
0.0679426
0.101308
0.100811
0.0150973
0.082578
-0.00739775
0.0299035
0.130821
0.120927
0.0716337
0.0584153
0.0468436
0.0258983
0.0554298
0.0108889
0.0176217
0.00942035
0.0059601
0.00372488
0.0547619
-0.00053774
0.0121582
-0.01028
-0.00186143
-0.000867647
-0.00643096
-0.00420164
-0.00993877
-0.00897339
-0.00538553
-0.00603241
-0.00863581
-0.00864523
-0.0066528
-0.00727408
0.000551782
-0.00246675
0.00437061
6.83406e-05
-0.00441727
-0.00580521
-0.00272528
-0.00463288
-0.00886269
-0.0092083
-0.00790019
-0.00853121
-0.00963137
-0.010096
-0.00916448
-0.00979379
-0.00689678
-0.00782871
-0.00605058
-0.00719737
-0.00867319
-0.00946678
-0.00819775
-0.00912266
0.00390065
0.000277005
0.00121136
-0.000898944
-0.00226323
-0.0041065
-0.00264316
-0.00407458
-0.00139165
-0.00230344
-0.00356818
-0.00362222
-0.00329904
-0.00425394
-0.00399141
-0.00447934
-0.00553104
-0.00670985
-0.00527517
-0.00632579
-0.00775639
-0.00874716
-0.00730227
-0.0082729
-0.00513223
-0.00594958
-0.00498777
-0.00548928
-0.00675345
-0.0076128
-0.00601328
-0.00663747
-0.00515845
-0.00549782
-0.00642249
-0.00308919
-0.00237296
-0.00194458
-0.00845177
0.0200215
-0.00255973
0.0220164
-0.000625483
0.0017152
0.00503289
0.00180158
0.00618415
0.0136937
0.00840257
0.0214404
0.0234541
0.0341168
0.0537714
0.0570416
0.0478664
0.0489331
0.0556978
0.0549324
0.0490447
0.0486395
0.0324644
0.0360176
0.0261089
0.0198455
0.0409364
0.0417506
0.0304284
0.0336738
0.00252688
0.00762099
0.0165586
0.000832189
0.00449972
0.0102433
0.0285918
0.0414936
0.0171317
0.028753
-0.00167467
0.000250926
0.00241031
-0.00404733
-0.00335766
-0.00316955
0.0038067
0.0223202
-0.00425881
0.0234874
0.0272731
0.0146699
0.0288322
0.0267609
0.0269387
0.0310668
0.034947
0.037069
0.0404549
0.0423289
0.0530471
0.0533191
0.04445
0.0446096
0.0521749
0.0515187
0.0554525
0.0564267
0.0488471
0.0481677
0.0574146
0.02388
0.0495032
0.0233804
0.0410022
0.0363305
0.0307384
0.0207586
0.0323025
0.0194014
0.0236753
0.0293419
-0.00862164
-0.00650633
-0.00414295
-0.00351435
-0.00694305
-0.00980417
-0.0049612
-0.007897
0.00562487
0.00268047
0.0207061
0.0115091
-0.0011901
-0.00500045
0.00366724
-0.00173075
0.0272691
0.0151986
0.0351198
0.0273008
0.0236807
0.0363389
0.0277757
0.0253493
0.0443367
0.0422183
0.0517758
0.0523805
0.0419482
0.0217613
0.0554888
0.0252296
0.0264287
0.0147695
0.0139603
0.0081108
0.00558123
-0.000223058
0.00265511
-0.00121531
0.00036286
0.000104606
-0.00663363
-0.00495851
-0.0016356
-0.00355167
-0.0048256
-0.00546807
-0.00605533
-0.00611192
-0.00675517
-0.0075799
-0.00797302
-0.00882624
-0.00854552
0.0169336
-0.0104872
0.000596072
-0.00868931
-0.00920383
-0.0100639
-0.00945883
-0.00997218
-0.0107212
-0.0114439
-0.0115539
-0.011786
-0.0131812
0.0522677
0.0596311
0.036233
0.0609227
0.0577369
0.0569757
0.0616024
0.0609699
0.00664786
0.0361987
-0.0127813
-0.00152559
0.0536801
0.0593045
0.0140562
0.0198232
-0.00999597
-0.0104737
-0.0111166
-0.0103582
-0.0107795
-0.0113137
-0.0119571
-0.0129598
-0.0119672
-0.0127032
-0.0105959
-0.0109562
-0.0113948
-0.0107321
-0.0110476
-0.0114068
-0.0119048
-0.0124546
-0.0118087
-0.012227
-0.0140744
-0.0149107
-0.013479
-0.0140667
-0.0154286
-0.0157061
-0.0144625
-0.0146855
-0.0130059
-0.0134359
-0.012629
-0.0129475
-0.0137248
-0.0138754
-0.0131664
-0.0132812
0.0573067
0.0586733
0.0612396
0.0612615
0.0554554
0.0197885
0.0400678
0.0031173
0.0547497
0.0387864
0.015238
0.000123137
0.00936867
-0.0110616
-0.0123818
-0.0138812
-0.0102804
-0.0080718
-0.0117763
-0.00987355
-0.00709073
-0.00698473
-0.00885791
-0.00855128
-0.0123657
-0.0108727
-0.0125097
-0.0114199
-0.00992974
-0.00948429
-0.0106697
-0.010243
-0.01552
-0.0151933
-0.0145448
-0.0142728
-0.0145162
-0.0134822
-0.0138173
-0.0131536
-0.013805
-0.0136201
-0.0132539
-0.0131438
-0.0133179
-0.0129102
-0.0129694
-0.012749
-0.0125549
-0.0117709
-0.0125382
-0.0120074
-0.0111958
-0.0108242
-0.0116017
-0.0113148
-0.0125295
-0.0122049
-0.0125517
-0.0123957
-0.0119534
-0.0117612
-0.012282
-0.0121935
-0.0151348
-0.0179493
-0.0119213
-0.0165051
-0.0114508
-0.0139339
-0.0195727
-0.0193056
-0.00873345
-0.0121374
-0.00583297
-0.00885244
-0.0145082
-0.0147496
-0.0111494
-0.0118271
-0.0182455
-0.0120156
-0.0157156
-0.0116395
-0.0083905
-0.00612092
-0.00896115
-0.00706881
-0.0129734
-0.0107456
-0.0109747
-0.00984153
-0.00888565
-0.00743701
-0.00857915
-0.00751401
-0.00314184
0.0139945
0.0182476
0.0810893
0.0378188
0.0265363
0.129879
0.116748
0.0455244
0.135013
0.0351512
0.124967
0.174713
0.172112
0.174338
0.164015
-2.50952e-05
-0.00883304
0.0471855
-0.00534414
-0.00812692
-0.00743309
-0.00814011
-0.0075318
0.0923525
0.00352114
0.0822468
0.00168733
-0.00804521
-0.00759774
-0.00788769
-0.00768488
-0.00504496
-0.00462297
-0.00593343
-0.00529283
-0.00455068
-0.0046369
-0.00493466
-0.00469542
-0.00641371
-0.00570874
-0.0066575
-0.00597535
-0.00518135
-0.00469377
-0.0053691
-0.00471802
-0.00476393
-0.00487773
-0.00445223
-0.00412374
-0.00498724
-0.00515845
-0.0036725
-0.00308919
-0.00411745
-0.00333316
-0.00388375
-0.00269848
-0.00222215
-0.000625483
-0.000932862
0.00180158
-0.00678456
-0.00619026
-0.006985
-0.00646334
-0.00558934
-0.00488563
-0.00591388
-0.00526023
-0.00718594
-0.00677231
-0.00742394
-0.00712948
-0.00632288
-0.00578865
-0.00679642
-0.00640415
-0.00395069
-0.00261035
-0.00440594
-0.00323161
-0.000606394
0.00252688
-0.00157873
0.000832189
-0.00511426
-0.00424466
-0.00593247
-0.00537276
-0.00312679
-0.00167467
-0.00473699
-0.00404733
0.00483354
0.0542946
-0.00834571
-0.00361308
0.0987314
0.0850595
0.00711523
0.00351933
-0.0092453
-0.0094158
-0.00998275
-0.00994623
-0.00973289
-0.0096319
-0.00999517
-0.00987299
0.0290182
-0.00741781
-0.00762364
-0.00883588
-0.00828433
-0.00804678
-0.0086005
-0.00838516
-0.00937817
-0.00913312
-0.00967389
-0.00946082
-0.00893081
-0.00874516
-0.0092732
-0.0091081
-0.0105758
-0.0104547
-0.0110993
-0.0109403
-0.0103678
-0.010199
-0.0107838
-0.0105774
-0.0115956
-0.0114363
-0.0120989
-0.0119721
-0.0112501
-0.0110139
-0.0117981
-0.0115484
-0.00999779
-0.00979463
-0.0103578
-0.0101523
-0.00961574
-0.00946362
-0.00997291
-0.00982215
-0.010773
-0.0105623
-0.0112944
-0.0110875
-0.0103752
-0.0102111
-0.0108823
-0.0106816
-0.00780687
-0.00756846
-0.00819291
-0.00801531
-0.00732229
-0.0070562
-0.00784813
-0.00768903
-0.00858811
-0.00845637
-0.0089752
-0.00887496
-0.00834949
-0.00827042
-0.00880915
-0.00878325
-0.00676733
-0.00647164
-0.00754614
-0.00744502
-0.00621213
-0.00605533
-0.00743413
-0.0075799
-0.00823162
-0.00825887
-0.00880988
-0.00891049
-0.00839428
-0.00868931
-0.00911575
-0.00945883
-0.00934509
-0.00926264
-0.00970449
-0.00962402
-0.00921994
-0.00922353
-0.00958597
-0.00959771
-0.0100761
-0.00997697
-0.0104995
-0.0103516
-0.00992238
-0.00992095
-0.0102523
-0.010213
-0.00928483
-0.0094202
-0.00966902
-0.00981146
-0.00965055
-0.00999597
-0.0100377
-0.0103582
-0.00998107
-0.01011
-0.010241
-0.0103392
-0.0103138
-0.0105959
-0.0105082
-0.0107593

SCALARS U float
LOOKUP_TABLE default
0.0219146
0.0221289
0.0219802
0.022253
0.0222724
0.022475
0.0219233
0.0220757
0.0221613
0.0223223
0.0225868
0.0222591
0.0225511
0.0221675
0.0220855
0.021987
0.0220876
0.0221268
0.0221051
0.0221588
0.022157
0.0220978
0.0219981
0.0220957
0.0219751
0.0220678
0.0223271
0.0217697
0.0219523
0.021912
0.0216619
0.0214002
0.021489
0.0209714
0.0209181
0.0213602
0.0210277
0.0218296
0.0216053
0.0217991
0.0215802
0.0213465
0.0210783
0.0213401
0.0211081
0.0222738
0.0222826
0.0222427
0.0224857
0.0224522
0.0223774
0.0221496
0.0220032
0.0222532
0.022076
0.0227303
0.0226601
0.022557
0.0229917
0.022898
0.0227807
0.022406
0.0221953
0.0226135
0.0223721
0.0218068
0.0215726
0.0218463
0.0215736
0.0213245
0.0210988
0.0212852
0.0210284
0.0219201
0.0215828
0.0220438
0.021613
0.0212122
0.0208744
0.0211051
0.0206213
0.0205397
0.0203367
0.0201613
0.0198432
0.0207039
0.0204264
0.0198397
0.0194081
0.019595
0.0190823
0.0202075
0.0200519
0.0208341
0.0206456
0.0209193
0.0208073
0.020528
0.0204823
0.0207952
0.0208896
0.0194263
0.0188954
0.0192837
0.0187842
0.019943
0.0198241
0.0191004
0.0186833
0.0188062
0.0185335
0.0196034
0.0191845
0.020483
0.0204537
0.0210628
0.0212262
0.0202682
0.0197777
0.0212118
0.0207728
0.0209374
0.0208832
0.0208548
0.0208224
0.0209762
0.0212417
0.0210018
0.0214593
0.0206294
0.020552
0.0202214
0.0199853
0.0207613
0.0213894
0.0200981
0.0207711
0.0216724
0.0221917
0.0222454
0.0233441
0.0225841
0.0224958
0.0245439
0.0254733
0.0225923
0.0245193
0.0223117
0.0252103
0.0271038
0.0303226
0.029962
0.0381003
0.02325
0.0231569
0.0230504
0.0234828
0.0234278
0.0233715
0.022889
0.0226295
0.023255
0.0230057
0.0236663
0.0236998
0.0237521
0.0237636
0.0239564
0.0241974
0.0237442
0.0235545
0.0243853
0.0243274
0.0222524
0.0216989
0.0226083
0.0219071
0.0209773
0.0202718
0.0208613
0.0198651
0.0232205
0.0223596
0.0242612
0.0233158
0.0207974
0.0194769
0.0209197
0.0192229
0.0237318
0.0241779
0.0247224
0.0235202
0.0242978
0.0252442
0.0252363
0.0253867
0.0261311
0.0262954
0.023096
0.0243307
0.026
0.0223052
0.0240686
0.0268491
0.027937
0.0293253
0.0311814
0.0359104
0.0257051
0.0250099
0.0257239
0.0248271
0.0218863
0.0192561
0.0228291
0.0196055
0.0281281
0.0254095
0.0356123
0.0299429
0.0234399
0.0200603
0.0248711
0.0204501
0.0196152
0.019046
0.0188536
0.0177214
0.0188373
0.0192381
0.0168978
0.0165287
0.0180725
0.0160963
0.0174327
0.0143787
0.0143758
0.0126961
0.0119226
0.00927441
0.0206409
0.0239901
0.0168329
0.0187948
0.0307184
0.0460114
0.0243653
0.0399513
0.0104431
0.00717563
0.00453123
-0.00457712
0.00318009
-0.00636359
-0.0206266
-0.0625212
0.0165587
0.0127859
0.0161741
0.0136344
0.0106312
0.00866676
0.0120233
0.0105786
0.0164801
0.014334
0.0160734
0.0111776
0.0115247
0.0101791
0.00530343
0.00477497
0.00486896
-0.00212095
0.00970188
0.00975964
-0.0139593
-0.0440485
0.0115716
0.0172163
0.0120806
0.0162656
0.0105854
0.0176443
0.0233604
0.0394178
0.0250847
0.035881
0.0183656
0.0183033
0.0178126
0.0180036
0.0185042
0.0176006
0.017223
0.0176939
0.016901
0.017539
0.0165099
0.0158616
0.018819
0.0174272
0.0195302
0.0175165
0.0154106
0.0140979
0.0136902
0.0109233
0.0171226
0.017671
0.0176491
0.0180031
0.0163063
0.0172036
0.0182163
0.0184106
0.0187857
0.0188488
0.017998
0.0187421
0.0150904
0.0167074
0.0132367
0.0162901
0.0177917
0.0187602
0.0176738
0.0189237
0.0210716
0.0183228
0.024405
0.0213441
0.0108149
0.00480296
0.0061417
-0.00759518
0.031098
0.0285816
0.0470241
0.0491631
0.00310341
-0.0147314
0.0302931
0.0232838
0.0103761
0.0164527
0.00563311
0.0183507
0.0178609
0.0194097
0.0187808
0.0204686
0.00861807
0.0230063
0.0369595
0.0343833
0.0210024
0.022188
0.0272942
0.0255814
0.0193228
0.0192892
0.0198135
0.0197172
0.0193958
0.0199543
0.0202574
0.0201281
0.0206589
0.0205229
0.0204292
0.020833
0.0195472
0.0201726
0.0198437
0.0205163
0.02067
0.0210661
0.0210133
0.0213807
0.0210231
0.0209037
0.0213542
0.0212724
0.0211773
0.0214714
0.0216524
0.0216264
0.0219146
0.0219378
0.0217196
0.0219233
0.0213827
0.021636
0.0216538
0.0218568
0.0218356
0.021987
0.0220044
0.0221051
0.0203979
0.0210511
0.0213394
0.021835
0.0214956
0.0217955
0.0221401
0.0223162
0.0226777
0.0228574
0.0246861
0.0241644
0.0229301
0.0229241
0.0238428
0.0235828
0.0219988
0.0221362
0.0224154
0.0224684
0.0222248
0.0222738
0.0224898
0.0224857
0.0228854
0.0228368
0.0233739
0.0232124
0.0227855
0.0227303
0.0230895
0.0229917
0.0690095
0.0759175
0.0670198
0.0742756
0.0673819
0.049769
0.0635836
0.0331399
-0.0132055
-0.000664837
-0.120372
-0.107785