# vtk DataFile Version 2.0
Gerris simulation version 1.3.2 (131206-155120)
ASCII
DATASET UNSTRUCTURED_GRID

POINTS 1089 float
-0.5 0.46875 0
-0.46875 0.46875 0
-0.5 0.5 0
-0.46875 0.5 0
-0.4375 0.46875 0
-0.4375 0.5 0
-0.5 0.4375 0
-0.46875 0.4375 0
-0.4375 0.4375 0
-0.40625 0.46875 0
-0.40625 0.5 0
-0.375 0.46875 0
-0.375 0.5 0
-0.40625 0.4375 0
-0.375 0.4375 0
-0.5 0.40625 0
-0.46875 0.40625 0
-0.4375 0.40625 0
-0.5 0.375 0
-0.46875 0.375 0
-0.4375 0.375 0
-0.40625 0.40625 0
-0.375 0.40625 0
-0.40625 0.375 0
-0.375 0.375 0
-0.34375 0.46875 0
-0.34375 0.5 0
-0.3125 0.46875 0
-0.3125 0.5 0
-0.34375 0.4375 0
-0.3125 0.4375 0
-0.28125 0.46875 0
-0.28125 0.5 0
-0.25 0.46875 0
-0.25 0.5 0
-0.28125 0.4375 0
-0.25 0.4375 0
-0.34375 0.40625 0
-0.3125 0.40625 0
-0.34375 0.375 0
-0.3125 0.375 0
-0.28125 0.40625 0
-0.25 0.40625 0
-0.28125 0.375 0
-0.25 0.375 0
-0.5 0.34375 0
-0.46875 0.34375 0
-0.4375 0.34375 0
-0.5 0.3125 0
-0.46875 0.3125 0
-0.4375 0.3125 0
-0.40625 0.34375 0
-0.375 0.34375 0
-0.40625 0.3125 0
-0.375 0.3125 0
-0.5 0.28125 0
-0.46875 0.28125 0
-0.4375 0.28125 0
-0.5 0.25 0
-0.46875 0.25 0
-0.4375 0.25 0
-0.40625 0.28125 0
-0.375 0.28125 0
-0.40625 0.25 0
-0.375 0.25 0
-0.34375 0.34375 0
-0.3125 0.34375 0
-0.34375 0.3125 0
-0.3125 0.3125 0
-0.28125 0.34375 0
-0.25 0.34375 0
-0.28125 0.3125 0
-0.25 0.3125 0
-0.34375 0.28125 0
-0.3125 0.28125 0
-0.34375 0.25 0
-0.3125 0.25 0
-0.28125 0.28125 0
-0.25 0.28125 0
-0.28125 0.25 0
-0.25 0.25 0
-0.21875 0.46875 0
-0.21875 0.5 0
-0.1875 0.46875 0
-0.1875 0.5 0
-0.21875 0.4375 0
-0.1875 0.4375 0
-0.15625 0.46875 0
-0.15625 0.5 0
-0.125 0.46875 0
-0.125 0.5 0
-0.15625 0.4375 0
-0.125 0.4375 0
-0.21875 0.40625 0
-0.1875 0.40625 0
-0.21875 0.375 0
-0.1875 0.375 0
-0.15625 0.40625 0
-0.125 0.40625 0
-0.15625 0.375 0
-0.125 0.375 0
-0.09375 0.46875 0
-0.09375 0.5 0
-0.0625 0.46875 0
-0.0625 0.5 0
-0.09375 0.4375 0
-0.0625 0.4375 0
-0.03125 0.46875 0
-0.03125 0.5 0
0 0.46875 0
0 0.5 0
-0.03125 0.4375 0
0 0.4375 0
-0.09375 0.40625 0
-0.0625 0.40625 0
-0.09375 0.375 0
-0.0625 0.375 0
-0.03125 0.40625 0
0 0.40625 0
-0.03125 0.375 0
0 0.375 0
-0.21875 0.34375 0
-0.1875 0.34375 0
-0.21875 0.3125 0
-0.1875 0.3125 0
-0.15625 0.34375 0
-0.125 0.34375 0
-0.15625 0.3125 0
-0.125 0.3125 0
-0.21875 0.28125 0
-0.1875 0.28125 0
-0.21875 0.25 0
-0.1875 0.25 0
-0.15625 0.28125 0
-0.125 0.28125 0
-0.15625 0.25 0
-0.125 0.25 0
-0.09375 0.34375 0
-0.0625 0.34375 0
-0.09375 0.3125 0
-0.0625 0.3125 0
-0.03125 0.34375 0
0 0.34375 0
-0.03125 0.3125 0
0 0.3125 0
-0.09375 0.28125 0
-0.0625 0.28125 0
-0.09375 0.25 0
-0.0625 0.25 0
-0.03125 0.28125 0
0 0.28125 0
-0.03125 0.25 0
0 0.25 0
-0.5 0.21875 0
-0.46875 0.21875 0
-0.4375 0.21875 0
-0.5 0.1875 0
-0.46875 0.1875 0
-0.4375 0.1875 0
-0.40625 0.21875 0
-0.375 0.21875 0
-0.40625 0.1875 0
-0.375 0.1875 0
-0.5 0.15625 0
-0.46875 0.15625 0
-0.4375 0.15625 0
-0.5 0.125 0
-0.46875 0.125 0
-0.4375 0.125 0
-0.40625 0.15625 0
-0.375 0.15625 0
-0.40625 0.125 0
-0.375 0.125 0
-0.34375 0.21875 0
-0.3125 0.21875 0
-0.34375 0.1875 0
-0.3125 0.1875 0
-0.28125 0.21875 0
-0.25 0.21875 0
-0.28125 0.1875 0
-0.25 0.1875 0
-0.34375 0.15625 0
-0.3125 0.15625 0
-0.34375 0.125 0
-0.3125 0.125 0
-0.28125 0.15625 0
-0.25 0.15625 0
-0.28125 0.125 0
-0.25 0.125 0
-0.5 0.09375 0
-0.46875 0.09375 0
-0.4375 0.09375 0
-0.5 0.0625 0
-0.46875 0.0625 0
-0.4375 0.0625 0
-0.40625 0.09375 0
-0.375 0.09375 0
-0.40625 0.0625 0
-0.375 0.0625 0
-0.5 0.03125 0
-0.46875 0.03125 0
-0.4375 0.03125 0
-0.5 0 0
-0.46875 0 0
-0.4375 0 0
-0.40625 0.03125 0
-0.375 0.03125 0
-0.40625 0 0
-0.375 0 0
-0.34375 0.09375 0
-0.3125 0.09375 0
-0.34375 0.0625 0
-0.3125 0.0625 0
-0.28125 0.09375 0
-0.25 0.09375 0
-0.28125 0.0625 0
-0.25 0.0625 0
-0.34375 0.03125 0
-0.3125 0.03125 0
-0.34375 0 0
-0.3125 0 0
-0.28125 0.03125 0
-0.25 0.03125 0
-0.28125 0 0
-0.25 0 0
-0.21875 0.21875 0
-0.1875 0.21875 0
-0.21875 0.1875 0
-0.1875 0.1875 0
-0.15625 0.21875 0
-0.125 0.21875 0
-0.15625 0.1875 0
-0.125 0.1875 0
-0.21875 0.15625 0
-0.1875 0.15625 0
-0.21875 0.125 0
-0.1875 0.125 0
-0.15625 0.15625 0
-0.125 0.15625 0
-0.15625 0.125 0
-0.125 0.125 0
-0.09375 0.21875 0
-0.0625 0.21875 0
-0.09375 0.1875 0
-0.0625 0.1875 0
-0.03125 0.21875 0
0 0.21875 0
-0.03125 0.1875 0
0 0.1875 0
-0.09375 0.15625 0
-0.0625 0.15625 0
-0.09375 0.125 0
-0.0625 0.125 0
-0.03125 0.15625 0
0 0.15625 0
-0.03125 0.125 0
0 0.125 0
-0.21875 0.09375 0
-0.1875 0.09375 0
-0.21875 0.0625 0
-0.1875 0.0625 0
-0.15625 0.09375 0
-0.125 0.09375 0
-0.15625 0.0625 0
-0.125 0.0625 0
-0.21875 0.03125 0
-0.1875 0.03125 0
-0.21875 0 0
-0.1875 0 0
-0.15625 0.03125 0
-0.125 0.03125 0
-0.15625 0 0
-0.125 0 0
-0.09375 0.09375 0
-0.0625 0.09375 0
-0.09375 0.0625 0
-0.0625 0.0625 0
-0.03125 0.09375 0
0 0.09375 0
-0.03125 0.0625 0
0 0.0625 0
-0.09375 0.03125 0
-0.0625 0.03125 0
-0.09375 0 0
-0.0625 0 0
-0.03125 0.03125 0
0 0.03125 0
-0.03125 0 0
0 0 0
0.03125 0.46875 0
0.03125 0.5 0
0.0625 0.46875 0
0.0625 0.5 0
0.03125 0.4375 0
0.0625 0.4375 0
0.09375 0.46875 0
0.09375 0.5 0
0.125 0.46875 0
0.125 0.5 0
0.09375 0.4375 0
0.125 0.4375 0
0.03125 0.40625 0
0.0625 0.40625 0
0.03125 0.375 0
0.0625 0.375 0
0.09375 0.40625 0
0.125 0.40625 0
0.09375 0.375 0
0.125 0.375 0
0.15625 0.46875 0
0.15625 0.5 0
0.1875 0.46875 0
0.1875 0.5 0
0.15625 0.4375 0
0.1875 0.4375 0
0.21875 0.46875 0
0.21875 0.5 0
0.25 0.46875 0
0.25 0.5 0
0.21875 0.4375 0
0.25 0.4375 0
0.15625 0.40625 0
0.1875 0.40625 0
0.15625 0.375 0
0.1875 0.375 0
0.21875 0.40625 0
0.25 0.40625 0
0.21875 0.375 0
0.25 0.375 0
0.03125 0.34375 0
0.0625 0.34375 0
0.03125 0.3125 0
0.0625 0.3125 0
0.09375 0.34375 0
0.125 0.34375 0
0.09375 0.3125 0
0.125 0.3125 0
0.03125 0.28125 0
0.0625 0.28125 0
0.03125 0.25 0
0.0625 0.25 0
0.09375 0.28125 0
0.125 0.28125 0
0.09375 0.25 0
0.125 0.25 0
0.15625 0.34375 0
0.1875 0.34375 0
0.15625 0.3125 0
0.1875 0.3125 0
0.21875 0.34375 0
0.25 0.34375 0
0.21875 0.3125 0
0.25 0.3125 0
0.15625 0.28125 0
0.1875 0.28125 0
0.15625 0.25 0
0.1875 0.25 0
0.21875 0.28125 0
0.25 0.28125 0
0.21875 0.25 0
0.25 0.25 0
0.28125 0.46875 0
0.28125 0.5 0
0.3125 0.46875 0
0.3125 0.5 0
0.28125 0.4375 0
0.3125 0.4375 0
0.34375 0.46875 0
0.34375 0.5 0
0.375 0.46875 0
0.375 0.5 0
0.34375 0.4375 0
0.375 0.4375 0
0.28125 0.40625 0
0.3125 0.40625 0
0.28125 0.375 0
0.3125 0.375 0
0.34375 0.40625 0
0.375 0.40625 0
0.34375 0.375 0
0.375 0.375 0
0.40625 0.46875 0
0.40625 0.5 0
0.4375 0.46875 0
0.4375 0.5 0
0.40625 0.4375 0
0.4375 0.4375 0
0.46875 0.46875 0
0.46875 0.5 0
0.5 0.46875 0
0.5 0.5 0
0.46875 0.4375 0
0.5 0.4375 0
0.40625 0.40625 0
0.4375 0.40625 0
0.40625 0.375 0
0.4375 0.375 0
0.46875 0.40625 0
0.5 0.40625 0
0.46875 0.375 0
0.5 0.375 0
0.28125 0.34375 0
0.3125 0.34375 0
0.28125 0.3125 0
0.3125 0.3125 0
0.34375 0.34375 0
0.375 0.34375 0
0.34375 0.3125 0
0.375 0.3125 0
0.28125 0.28125 0
0.3125 0.28125 0
0.28125 0.25 0
0.3125 0.25 0
0.34375 0.28125 0
0.375 0.28125 0
0.34375 0.25 0
0.375 0.25 0
0.40625 0.34375 0
0.4375 0.34375 0
0.40625 0.3125 0
0.4375 0.3125 0
0.46875 0.34375 0
0.5 0.34375 0
0.46875 0.3125 0
0.5 0.3125 0
0.40625 0.28125 0
0.4375 0.28125 0
0.40625 0.25 0
0.4375 0.25 0
0.46875 0.28125 0
0.5 0.28125 0
0.46875 0.25 0
0.5 0.25 0
0.03125 0.21875 0
0.0625 0.21875 0
0.03125 0.1875 0
0.0625 0.1875 0
0.09375 0.21875 0
0.125 0.21875 0
0.09375 0.1875 0
0.125 0.1875 0
0.03125 0.15625 0
0.0625 0.15625 0
0.03125 0.125 0
0.0625 0.125 0
0.09375 0.15625 0
0.125 0.15625 0
0.09375 0.125 0
0.125 0.125 0
0.15625 0.21875 0
0.1875 0.21875 0
0.15625 0.1875 0
0.1875 0.1875 0
0.21875 0.21875 0
0.25 0.21875 0
0.21875 0.1875 0
0.25 0.1875 0
0.15625 0.15625 0
0.1875 0.15625 0
0.15625 0.125 0
0.1875 0.125 0
0.21875 0.15625 0
0.25 0.15625 0
0.21875 0.125 0
0.25 0.125 0
0.03125 0.09375 0
0.0625 0.09375 0
0.03125 0.0625 0
0.0625 0.0625 0
0.09375 0.09375 0
0.125 0.09375 0
0.09375 0.0625 0
0.125 0.0625 0
0.03125 0.03125 0
0.0625 0.03125 0
0.03125 0 0
0.0625 0 0
0.09375 0.03125 0
0.125 0.03125 0
0.09375 0 0
0.125 0 0
0.15625 0.09375 0
0.1875 0.09375 0
0.15625 0.0625 0
0.1875 0.0625 0
0.21875 0.09375 0
0.25 0.09375 0
0.21875 0.0625 0
0.25 0.0625 0
0.15625 0.03125 0
0.1875 0.03125 0
0.15625 0 0
0.1875 0 0
0.21875 0.03125 0
0.25 0.03125 0
0.21875 0 0
0.25 0 0
0.28125 0.21875 0
0.3125 0.21875 0
0.28125 0.1875 0
0.3125 0.1875 0
0.34375 0.21875 0
0.375 0.21875 0
0.34375 0.1875 0
0.375 0.1875 0
0.28125 0.15625 0
0.3125 0.15625 0
0.28125 0.125 0
0.3125 0.125 0
0.34375 0.15625 0
0.375 0.15625 0
0.34375 0.125 0
0.375 0.125 0
0.40625 0.21875 0
0.4375 0.21875 0
0.40625 0.1875 0
0.4375 0.1875 0
0.46875 0.21875 0
0.5 0.21875 0
0.46875 0.1875 0
0.5 0.1875 0
0.40625 0.15625 0
0.4375 0.15625 0
0.40625 0.125 0
0.4375 0.125 0
0.46875 0.15625 0
0.5 0.15625 0
0.46875 0.125 0
0.5 0.125 0
0.28125 0.09375 0
0.3125 0.09375 0
0.28125 0.0625 0
0.3125 0.0625 0
0.34375 0.09375 0
0.375 0.09375 0
0.34375 0.0625 0
0.375 0.0625 0
0.28125 0.03125 0
0.3125 0.03125 0
0.28125 0 0
0.3125 0 0
0.34375 0.03125 0
0.375 0.03125 0
0.34375 0 0
0.375 0 0
0.40625 0.09375 0
0.4375 0.09375 0
0.40625 0.0625 0
0.4375 0.0625 0
0.46875 0.09375 0
0.5 0.09375 0
0.46875 0.0625 0
0.5 0.0625 0
0.40625 0.03125 0
0.4375 0.03125 0
0.40625 0 0
0.4375 0 0
0.46875 0.03125 0
0.5 0.03125 0
0.46875 0 0
0.5 0 0
-0.5 -0.03125 0
-0.46875 -0.03125 0
-0.4375 -0.03125 0
-0.5 -0.0625 0
-0.46875 -0.0625 0
-0.4375 -0.0625 0
-0.40625 -0.03125 0
-0.375 -0.03125 0
-0.40625 -0.0625 0
-0.375 -0.0625 0
-0.5 -0.09375 0
-0.46875 -0.09375 0
-0.4375 -0.09375 0
-0.5 -0.125 0
-0.46875 -0.125 0
-0.4375 -0.125 0
-0.40625 -0.09375 0
-0.375 -0.09375 0
-0.40625 -0.125 0
-0.375 -0.125 0
-0.34375 -0.03125 0
-0.3125 -0.03125 0
-0.34375 -0.0625 0
-0.3125 -0.0625 0
-0.28125 -0.03125 0
-0.25 -0.03125 0
-0.28125 -0.0625 0
-0.25 -0.0625 0
-0.34375 -0.09375 0
-0.3125 -0.09375 0
-0.34375 -0.125 0
-0.3125 -0.125 0
-0.28125 -0.09375 0
-0.25 -0.09375 0
-0.28125 -0.125 0
-0.25 -0.125 0
-0.5 -0.15625 0
-0.46875 -0.15625 0
-0.4375 -0.15625 0
-0.5 -0.1875 0
-0.46875 -0.1875 0
-0.4375 -0.1875 0
-0.40625 -0.15625 0
-0.375 -0.15625 0
[...]
POINT_DATA 1089
SCALARS T float
LOOKUP_TABLE default
0
0
0
0
0
0
0
0
0
0
0
0
0
0
0
0
0
0
0
0
0
0
0
0
0
0
0
0
0
0
0
0
0
0
0
0
0
0
0
0
0
0
0
0
0
0
0
0
0
0
0
0
0
0
0
0
0
0
0
0
0
0
0
0
0
0
0
0
0
0
0
0
0
0
0
0
0
0
0
0
0
0
0
0
0
0
0
0
0
0
0
0
0
0
0
0
0
0
0
0
0
0
0
0
0
0
0
0
0
0
0
0
0
0
0
0
0
0
0
0
0
0
0
0
0
0
0
0
0
0
0
0
0
0
0
0
0
0
0
0
0
0
0
0
0
0
0
0
0
0
0
0
0
0
0
0
0
0
0
0
0
0
0
0
0
0
0
0
0
0
0
0
0
0
0
0
0
0
0
0
0
0
0
0
0
0
0
0
0
0
0
0
0
0
0
0
0
0
0
0
0
0
0
0
0
0
0
0
0
0
0
0
0
0
0
0
0.057196
0
0
0
0
0.0167301
0.299955
0.136937
0.612966
0
0
0
0
0
0
0
0
0
0
0
0
0
0
0
0
0
0
0
0
0
0
0
0
0
0
0
0
0
0
0
0
0.0246919
0.164696
0.31694
0.649748
0.341795
0.406185
0.841795
0.906185
0.768277
0.985052
0.976029
1
1
1
1
1
0.35184
0.181708
0.85184
0.667598
0.0342619
0
0.335845
0.0656928
1
0.98589
1
1
0.77926
0.311552
0.977677
0.613428
0
0
0
0
0
0
0
0
0
0
0
0
0
0
0
0
0
0
0
0
0
0
0
0
0
0
0
0
0
0
0
0
0
0
0
0
0
0
0
0
0
0
0
0
0
0
0
0
0
0
0
0
0
0.0652651
0
0.20882
0
0.00023565
0.100817
0.323577
0.00061173
0.00037608
0.46007
0.392303
0.415797
0.823056
0.708534
0.999715
0.959458
0.891927
1
1
0
0
0
0
0
0
0
0
0
0
0
0
0
0
0
0
0
0
0
0
0
0
0
0
0
0
0
0
0
0
0
0
0
0
0
0
0
0
0
0
0
0
0.167054
0.0120612
0
0
0
0
0.56925
0.164257
0.886999
0.387186
0
0
0.000186186
0
0
0
0
0
0
0
0
0
0
0
0
0
0
0
0
0
0
0
0
0
0
0.272104
0
0.158985
0
0
0
0
0
0.0304361
0
0
0.772104
1
0.644153
0.985168
1
1
1
1
0.305941
0.679987
0.0403368
0.194819
0.829066
0.770841
0.329066
0.270841
0
0
0
0
0
0
0
0
0.0181821
0
0.135752
0
0
0
0
0
0
0
0
0
0
0
0
0
0
0
0
5.59371e-05
0
0
5.59379e-05
8.37659e-10
0.959919
0.460241
0.842717
0.342853
0.000321314
0
0.000135128
0
0.464857
0.1186
0.0972555
0.000998639
0
0
0
0
0
0
0
0
0
0
0
0
0
0
0
0
0
0
0
0
0
0
0
0
0
0
0
0
0
0
0
0
0
0
0
0
0
0
0
0
0
0
0
0
0
0
0
0
0
0
0
0
0
0
0
0
0
0
0
0
0
0
0
0
0
0
0
0
0
0
0
0
0
0
0
0.000393001
0.320461
0.820461
0.442147
0.941754
0
0.00123
0
0.000836999
0.491173
0.989943
0.47201
0.971173
0
0
0
0
0
0
0
0
0
0
0
0
0
0
0
0
0
0
0
0
0
0
0
0
0.381626
0.881626
0.209411
0.707956
0
0
0
0
0.050515
0.424896
0
0.126347
1
1
1
1
1
1
1
1
1
1
1
1
1
1
1
1
1
1
1
1
1
0.810244
1
0.922886
1
1
1
1
1
0.964111
1
0.938058
1
1
0.998544
1
1
1
1
1
0.874381
1
0.477439
0.828386
1
1
0.977295
1
1
1
1
1
1
0.842182
0.995019
0.666056
1
0.999742
0.969368
0.806022
0.848998
0.38227
0.440893
0.104238
0
0
0
0
0
0
0
0
0
0
0
0
0
0
0
0
0
0
0
0
0
0
0
0
0
0.000510281
0
0
0
0
0
0
0
0
0
0
0
0
0
0
0
0
0
0
0
0
0
0
0
0
0
0
0
0
0
0
0
0
0
0
0
0
0
0
0
0
0
0
0
0
0
0
0.101602
0.330117
0
0.00173105
0.516544
0.573218
0.0392494
0.0732175
0
0
0
0
0
0
0
0
0.507877
0.309092
0.0385099
0.0028107
0.0869133
0
0
0
0
0
0
0
0
0
0
0
0
0
0
0
0
0
0
0
0
0
0
0
0
0
0
0
0
0
0
0
0
0
0
0
0
0
0
0
0
0
0
0
0.310244
0
0.422886
0
0
0
0
0
0.464111
0
0.438058
0
0
0
0
0
0
0.00938746
0
0.0183399
0.0185111
0.110562
0.207968
0.541066
0
0.0118934
0
0.00288499
0.442194
0.9303
0.422673
0.919788
0.342182
0
0.171037
0
0
0
0
0
0.0330132
0
0
0
0
0
0
0
0
0
0
0
0.17855
0.504775
0.00855755
0.0847828
0
0
0
0
0
0
0
0
0.20776
0.116577
0.70776
0.53149
0.0102553
0
0.17517
1.79713e-06
1
0.885883
1
0.855297
0.385885
1.79713e-06
0.355297
0
0
0
0
0
0
0
0
0
0
0
0
0
0
0
0
0
0.643913
0.45384
0.143913
0.0695131
0.136152
0
0.001825
0
0
0
0
0
0
0
0
0
0
0
0
0
0
0
0
0
0
0
0
0
0
0
0
0
0
0
0
0
0
0
0
0
0
0
0
0
0
0
0
0
0
0
0
0
0
0
0
0
0
0
0
0
0
0
0
0
0
0
0
0
0
0
0
0
0
0
0
0
0
0
0
0
0
0
0
0
0
0
0
0
0
0
0
0
0
0
0
0
0
0
0
0
0
0
0
0
0
0
0
0
0
0
0
0
0
0
0
0
0
0
0
0
0
0
0
0
0
0
0
0
0
0
0
0
0
0
0
0
0
0
0
0
0
0
0
0
0
0
0
0
0
0
0
0
0
0
0
0
0
0
0
0

SCALARS P float
LOOKUP_TABLE default
-0.00926843
-0.00937014
-0.00921704
-0.00932046
-0.00949818
-0.00945257
-0.00929138
-0.00939228
-0.00951777
-0.00965119
-0.00961278
-0.00982707
-0.00979987
-0.00966583
-0.00983397
-0.00928678
-0.00938878
-0.00951385
-0.00925496
-0.00936063
-0.00948778
-0.00965979
-0.00982412
-0.00963465
-0.00979922
-0.0100224
-0.0100118
-0.0102314
-0.0102429
-0.0100182
-0.0102127
-0.0104465
-0.0104864
-0.0106562
-0.0107283
-0.0104099
-0.0105999
-0.0100028
-0.0101903
-0.00997787
-0.0101655
-0.0103793
-0.0105606
-0.0103553
-0.010538
-0.00919839
-0.00930986
-0.00944104
-0.00911942
-0.00923778
-0.00937391
-0.00959133
-0.00975969
-0.00952919
-0.00970416
-0.00902211
-0.00914654
-0.00928665
-0.00891363
-0.00903847
-0.0091783
-0.00944677
-0.00962981
-0.00934065
-0.00953124
-0.00994348
-0.0101384
-0.00989777
-0.0101068
-0.0103377
-0.0105322
-0.0103251
-0.010543
-0.00983705
-0.010067
-0.00975454
-0.0100118
-0.0103144
-0.0105692
-0.0102997
-0.0106084
-0.0108474
-0.0109535
-0.0110049
-0.0111416
-0.0107711
-0.0109113
-0.0111126
-0.0112691
-0.0111615
-0.0113238
-0.0110083
-0.0110549
-0.0107235
-0.0108569
-0.0107031
-0.0108392
-0.0109504
-0.0109973
-0.0109356
-0.0109849
-0.011147
-0.011298
-0.011074
-0.0111984
-0.0110482
-0.0109919
-0.0109539
-0.0110413
-0.0108024
-0.0108484
-0.010895
-0.0107705
-0.0109951
-0.0109472
-0.0109841
-0.0109368
-0.0108619
-0.0107518
-0.0108518
-0.0107432
-0.0107104
-0.010859
-0.0107468
-0.0109198
-0.0109652
-0.011019
-0.0110443
-0.0111057
-0.0108146
-0.0110282
-0.0109174
-0.0111947
-0.0111836
-0.0112582
-0.0113999
-0.0114964
-0.0110165
-0.0109611
-0.0110977
-0.0110236
-0.0108639
-0.010742
-0.0108974
-0.0107411
-0.0112409
-0.011135
-0.0114661
-0.0113103
-0.01096
-0.0107456
-0.0110582
-0.0107518
-0.00880084
-0.00891532
-0.00904702
-0.0086808
-0.00877337
-0.00888715
-0.00920594
-0.00940079
-0.00903409
-0.00922619
-0.00854986
-0.00860888
-0.00869319
-0.00840003
-0.00841547
-0.00845739
-0.0088162
-0.00899342
-0.00854015
-0.00868282
-0.00964012
-0.00992955
-0.0094777
-0.00980156
-0.0102698
-0.0106533
-0.0102063
-0.0106921
-0.00924678
-0.0095996
-0.00891635
-0.00927861
-0.0100739
-0.0106891
-0.00982021
-0.010607
-0.00822794
-0.00819203
-0.00817827
-0.00803623
-0.0079407
-0.00785666
-0.00820096
-0.00828102
-0.00779454
-0.00777145
-0.00783222
-0.00767356
-0.00750873
-0.00762819
-0.00740915
-0.00716193
-0.00733853
-0.00716729
-0.00687057
-0.00652366
-0.00845824
-0.00878986
-0.00783141
-0.00803812
-0.00937186
-0.0103615
-0.0085419
-0.00609744
-0.00702904
-0.0069446
-0.00611056
-0.00559589
-0.0061521
0.00925926
0.0016988
0.0270068
-0.0110558
-0.0114324
-0.0112334
-0.0117636
-0.0117196
-0.0118548
-0.012179
-0.0123773
-0.011425
-0.0121942
-0.011644
-0.0127921
-0.0128301
-0.0131456
-0.013764
-0.0142546
-0.0118072
-0.0115757
-0.0123099
-0.0119694
-0.0112091
-0.0107724
-0.011442
-0.0108402
-0.0130527
-0.0125301
-0.0141277
-0.0133249
-0.0117569
-0.0109395
-0.0121623
-0.0110192
-0.0100826
-0.0017298
0.00919732
0.0306509
0.00991317
0.0142447
0.044191
0.0490456
0.0369386
0.0513833
0.0475719
0.0503528
0.0531412
0.0536027
0.0512214
0.051638
0.0103052
-0.00135506
0.0451114
0.0317669
-0.0103371
-0.0109568
0.00957542
-0.00646093
0.053622
0.0521016
0.0514819
0.0507954
0.0374807
0.00910754
0.0479643
0.0264978
-0.010635
-0.0106404
-0.0104656
-0.0104328
-0.0106316
-0.0104918
-0.0103019
-0.0102353
-0.0101501
-0.010054
-0.0103575
-0.0102365
-0.0106298
-0.0105106
-0.0106251
-0.0105176
-0.0104028
-0.0103165
-0.0104335
-0.0103878
-0.0100073
-0.00988731
-0.00986764
-0.00973271
-0.0101244
-0.0100084
-0.00971797
-0.00958385
-0.00956114
-0.0094414
-0.00985549
-0.00967122
-0.0102492
-0.0101728
-0.0103996
-0.01042
-0.0100083
-0.00977667
-0.0102302
-0.00988506
-0.010614
-0.0105072
-0.0105786
-0.010442
-0.0104417
-0.0104437
-0.01036
-0.010373
-0.0105215
-0.0103252
-0.0104273
-0.0101211
-0.010184
-0.00227834
-0.00983366
0.0152721
-0.0105924
-0.0107496
0.0014876
0.0281842
-0.010475
-0.00998538
0.0446651
0.0363456
0.039812
0.0888893
0.075101
0.11006
0.105081
0.0961858
0.109985
0.109532
-0.00941564
-0.00931492
-0.00929481
-0.0092115
-0.00949334
-0.00934592
-0.00920732
-0.00913692
-0.00915362
-0.00909204
-0.0092425
-0.00917983
-0.00954914
-0.00936205
-0.00956377
-0.00931779
-0.00923923
-0.00916816
-0.00917977
-0.00910749
-0.00913551
-0.00907866
-0.00914935
-0.00909513
-0.00915862
-0.0091716
-0.00919447
-0.00914148
-0.00926843
-0.00921624
-0.00921721
-0.00929138
-0.00914677
-0.00916167
-0.00909398
-0.00911677
-0.00921032
-0.00928678
-0.009173
-0.00925496
-0.00955166
-0.00920607
0.00990371
-0.00769338
-0.00905363
-0.0089928
-0.0088207
-0.00881459
0.0571555
0.0100105
0.0946248
0.0360736
-0.00841458
-0.00855461
-0.00802071
-0.00831409
-0.00899981
-0.00903878
-0.00886471
-0.00893093
-0.00910781
-0.00919839
-0.0090179
-0.00911942
-0.00868784
-0.00879815
-0.00852232
-0.00866973
-0.00890861
-0.00902211
-0.00879495
-0.00891363
-0.010308
-0.00983502
-0.0102291
-0.00961493
-0.0093151
0.0233503
-0.0089654
0.0106498
-0.0101775
-0.00949729
-0.0100665
-0.00935805
-0.0088985
-0.00448667
-0.00886391
-0.00847776
0.0824302
0.10941
0.067816
0.107806
0.109729
0.109542
0.110072
0.110053
0.0283786
0.0727575
-0.00345227
0.0149295
0.0908846
0.083544
0.0308029
0.0234985
-0.00974231
-0.00900916
-0.0090102
-0.0083247
-0.00859176
-0.00839147
-0.00802258
-0.00795439
-0.00667202
-0.00720615
0.000963696
-0.00569468
-0.00720324
-0.00735675
-0.00615328
-0.0065872
-0.00847282
-0.00900695
-0.00808214
-0.00856676
-0.00944355
-0.00934494
-0.00883791
-0.00872064
-0.0076004
-0.00832054
-0.00698161
-0.00805678
-0.00836882
-0.00795257
-0.00785707
-0.00703266
0.10344
0.0449137
0.0904099
0.0315064
-0.00792816
-0.00824032
-0.00808648
-0.00829814
0.0462483
0.0052023
0.002492
-0.00878412
-0.00839661
-0.0084288
-0.00862693
-0.00852931
-0.00843621
-0.00857868
-0.00841648
-0.00851737
-0.00869267
-0.00880084
-0.00859829
-0.0086808
-0.00844022
-0.00847443
-0.00845386
-0.00842354
-0.00850627
-0.00854986
-0.00840273
-0.00840003
-0.00913504
-0.00889281
-0.00888246
-0.00888726
-0.00865761
-0.0085411
-0.0086628
-0.00853904
-0.00867394
-0.00899481
-0.00863706
-0.00940674
-0.00868401
-0.00853336
-0.00877737
-0.00853091
-0.00842289
-0.00834737
-0.00837665
-0.00825743
-0.00827904
-0.00822794
-0.00813959
-0.00803623
-0.00831536
-0.00815283
-0.00824148
-0.00803747
-0.00798703
-0.00783222
-0.00782917
-0.00762819
-0.00743984
-0.00717419
-0.00685777
-0.00727682
-0.00699552
-0.00664128
-0.00645519
-0.00594074
-0.00616797
-0.00554173
-0.00716773
-0.00690123
-0.00654739
-0.00713265
-0.00690762
-0.00659011
-0.00606115
-0.00540408
-0.00614743
-0.0055428
-0.00523341
-0.00429744
-0.00463098
-0.00338525
0.0118506
0.0370333
0.0180101
0.0422889
-0.00444237
-0.00300019
-0.00468056
-0.00337644
0.0204131
0.0443354
0.0195754
0.0438959
-0.00719445
-0.00702014
-0.00676414
-0.00734441
-0.00722115
-0.00703991
-0.00641016
-0.00593401
-0.00679827
-0.00648486
-0.0075485
-0.00748206
-0.00738353
-0.00778855
-0.0077738
-0.00775212
-0.00726281
-0.00712263
-0.00774069
-0.00775324
-0.00530225
-0.0044342
-0.00611561
-0.00561931
0.0150334
0.0404518
0.0057319
0.0323029
-0.00699989
-0.00687136
-0.00783989
-0.00804773
-0.00405086
0.0168459
-0.0084967
-0.00171286
0.0475015
0.048965
0.0467184
0.0481288
0.0498267
0.0501746
0.048974
0.0492735
0.0465226
0.0478794
0.0468352
0.0481377
0.0486808
0.0489398
0.0489126
0.0491529
0.0499507
0.0491593
0.0490032
0.048143
0.0477316
0.036016
0.0467214
0.0407624
0.048641
0.0477608
0.0488411
0.0479566
0.0463341
0.0423604
0.0465381
0.0413888
0.0476689
0.0489229
0.0487278
0.0501353
0.0496658
0.0499058
0.0509013
0.051178
0.0432221
0.0519357
0.0196414
0.042862
0.052687
0.0529971
0.0535339
0.0553362
0.049595
0.048734
0.0508964
0.0500911
0.0472965
0.037437
0.0483127
0.029263
0.0528122
0.0520814
0.0530797
0.0411385
0.0413743
0.0137014
0.0167854
-0.00341432
-0.00803853
-0.0080675
-0.00810861
-0.00828397
-0.00834624
-0.0084334
-0.0081815
-0.00830335
-0.00856397
-0.00875419
-0.00850939
-0.00859429
-0.00871061
-0.00871101
-0.0088097
-0.00894254
-0.00887334
-0.00909513
-0.00912051
-0.00935237
-0.00852875
-0.00891028
-0.00905116
-0.00948906
-0.00957511
-0.0106753
-0.0101604
-0.0110835
-0.00940924
-0.00983248
-0.00965889
-0.0100463
-0.0104151
-0.0111359
-0.0105382
-0.0111071
-0.00888259
-0.00898787
-0.00912709
-0.00902442
-0.00913155
-0.00927119
-0.00930741
-0.00953396
-0.00944733
-0.00966227
-0.00913549
-0.00924152
-0.00937795
-0.00921624
-0.00932046
-0.00945257
-0.00954634
-0.00974692
-0.00961278
-0.00979987
-0.00981792
-0.0101595
-0.0099206
-0.0102192
-0.0105666
-0.011015
-0.0105571
-0.0109139
-0.00998011
-0.0102411
-0.0100118
-0.0102429
-0.0105248
-0.0108146
-0.0104864
-0.0107283
-0.00523727
0.00939729
-0.0123676
-0.0136085
0.0220831
0.0260823
-0.011661
-0.00950093
-0.0120429
-0.0129874
-0.0117532
-0.0123793
-0.0136554
-0.0139606
-0.0128125
-0.0129986
0.0213309
0.00760049
-0.0119145
-0.0135901
-0.00644518
-0.0106494
-0.0123603
-0.0110636
-0.0137329
-0.0130011
-0.0128488
-0.0123953
-0.0120491
-0.0111472
-0.0117744
-0.0111323
-0.0114902
-0.0119286
-0.0112708
-0.0115858
-0.0122279
-0.0123507
-0.0117992
-0.0118857
-0.0110929
-0.0113308
-0.0109535
-0.0111416
-0.0114917
-0.0115579
-0.0112691
-0.0113238
-0.0122504
-0.0119502
-0.0118201
-0.0116183
-0.0115251
-0.0110626
-0.011322
-0.0109832
-0.0115157
-0.0113755
-0.011298
-0.0111984
-0.0111623
-0.0109094
-0.0110413
-0.0108484
0.0107131
-0.00425964
0.0165117
-0.00327555
-0.00515095
-0.00575847
-0.00443749
-0.00520652
0.0185092
-0.00293746
0.0172634
-0.00325943
-0.00422464
-0.00519682
-0.00447108
-0.00541998
-0.00627776
-0.00493837
-0.00585033
-0.00219507
-0.00326945
0.0127483
0.0315857
0.0895894
-0.00601101
-0.00350155
-0.00620144
-0.00571478
0.073974
0.160299
0.071066
0.159736
0.0124712
-0.00409231
0.00320604
-0.0054061
-0.00503348
-0.00577642
-0.00593627
-0.00638848
-0.00526935
-0.00683357
-0.00851454
-0.00803093
-0.00690919
-0.00705331
-0.00779631
-0.00772144
-0.00634087
-0.00684615
-0.00673853
-0.00705129
0.0266428
0.0863708
-0.0051902
0.0097012
-0.00718828
-0.00734344
-0.00769731
-0.00771899
-0.00739439
-0.0074005
-0.00768693
-0.00764091
0.0283021
0.0106659
0.119455
0.0858952
-0.00770839
-0.00860465
0.0211048
-0.00828696
0.173776
0.151105
0.173186
0.145727
0.0594821
-0.00771905
0.0553287
-0.00704542
-0.00818629
-0.00791937
-0.00794748
-0.00772304
-0.00767475
-0.00743984
-0.00750603
-0.00727682
-0.00763957
-0.0075159
-0.00728227
-0.00733082
-0.00736318
-0.00716773
-0.00727313
-0.00713265
0.110701
0.0750506
0.0207087
0.00638011
0.0171266
-0.00691137
-0.00669696
-0.00730059
-0.00757623
-0.00747223
-0.00772382
-0.00769911
-0.00736235
-0.00747292
-0.00766914
-0.00772176
-0.00717985
-0.00729662
-0.00738247
-0.0074259
-0.00729087
-0.00719445
-0.00741474
-0.00734441
-0.00753369
-0.00757586
-0.00775229
-0.00777835
-0.00758274
-0.0075485
-0.00779267
-0.00778855
-0.00954404
-0.00890757
-0.0101207
-0.00948024
-0.00851575
-0.0082987
-0.00904556
-0.00876145
-0.0104163
-0.00985427
-0.0105629
-0.0100883
-0.00943631
-0.00913318
-0.00971021
-0.00941561
-0.00816395
-0.00809567
-0.00856467
-0.00843643
-0.00802784
-0.00797058
-0.00833092
-0.00825386
-0.00890834
-0.0087465
-0.00918509
-0.00900806
-0.00861793
-0.00852114
-0.00886618
-0.00875679
-0.010625
-0.0102362
-0.0106447
-0.0103287
-0.00990738
-0.00963619
-0.0100483
-0.00980619
-0.0106457
-0.0103898
-0.0106404
-0.0104328
-0.0101536
-0.00994203
-0.0102353
-0.010054
-0.00941369
-0.00923364
-0.00959907
-0.00942366
-0.00908506
-0.0089653
-0.00927343
-0.00914676
-0.009754
-0.00958751
-0.00988731
-0.00973271
-0.0094378
-0.00930441
-0.00958385
-0.0094414
-0.00797807
-0.00794405
-0.00822474
-0.00818604
-0.00792462
-0.007945
-0.00816534
-0.00816778
-0.00846072
-0.00840965
-0.00867881
-0.00861788
-0.00838116
-0.00837306
-0.00858062
-0.00856435
-0.00796596
-0.00798995
-0.00818127
-0.00820473
-0.00801532
-0.00803853
-0.00823925
-0.00828397
-0.00838224
-0.00840694
-0.0085692
-0.00859405
-0.00844905
-0.00850939
-0.00864081
-0.00871101
-0.00887323
-0.00880234
-0.00904424
-0.00896411
-0.00875629
-0.00873321
-0.00890945
-0.00887963
-0.00919127
-0.00910078
-0.00931492
-0.0092115
-0.00903689
-0.00899992
-0.00913692
-0.00909204
-0.00873405
-0.0087582
-0.00887601
-0.00889821
-0.00880724
-0.00888259
-0.00894738
-0.00902442
-0.00899151
-0.00901098
-0.00907866
-0.00909513
-0.00905897
-0.00913549
-0.00914148
-0.00921704

SCALARS U float
LOOKUP_TABLE default
0.0201408
0.020335
0.0198145
0.0200356
0.0205232
0.0202553
0.0204887
0.0206361
0.0207819
0.0207033
0.0204645
0.0208716
0.0206615
0.0209233
0.0210554
0.0208394
0.0209334
0.0210322
0.0211686
0.0212108
0.0212648
0.0211324
0.0212275
0.0213268
0.021389
0.0210201
0.0208401
0.0211392
0.0209933
0.0211681
0.0212496
0.0212164
0.0211097
0.0212404
0.0211795
0.0212862
0.0212654
0.0213054
0.0213521
0.0214374
0.0214555
0.0213518
0.0212902
0.021425
0.0213289
0.0214355
0.0214395
0.0214589
0.0216126
0.0215974
0.0215935
0.0214905
0.0215266
0.0216015
0.0216163
0.0216875
0.0216685
0.0216474
0.0216894
0.0216614
0.0216119
0.0216322
0.0216241
0.0215591
0.0215124
0.0215526
0.0215504
0.0216252
0.0216093
0.0214987
0.0213771
0.0215459
0.0214106
0.0216143
0.0215862
0.021469
0.0214162
0.0215173
0.0213813
0.021337
0.0212096
0.0212037
0.0211969
0.0211019
0.0211523
0.0211792
0.0210249
0.0209447
0.0210597
0.0207475
0.0209338
0.0208114
0.0205551
0.0211579
0.0209528
0.0211553
0.0209013
0.0206838
0.02037
0.0205767
0.020205
0.0205223
0.0207737
0.020287
0.0205883
0.0202752
0.0199948
0.0200621
0.0203951
0.0198668
0.0202149
0.0197384
0.0195274
0.0200362
0.0197113
0.019818
0.019452
0.0194239
0.0191983
0.0191399
0.0189079
0.0211703
0.0208731
0.0211838
0.0208564
0.0204967
0.0200705
0.0204387
0.0199684
0.0211545
0.0208199
0.0210093
0.0207052
0.0203831
0.0198899
0.0202884
0.0198098
0.0196366
0.0192408
0.0195006
0.0190945
0.0189212
0.018706
0.0187942
0.018629
0.0194121
0.0190236
0.0193566
0.0190148
0.0187774
0.0187056
0.0188429
0.0188638
0.0216692
0.0215958
0.021485
0.0216696
0.0214917
0.021273
0.0213628
0.0212443
0.0210364
0.0207946
0.0216563
0.0213411
0.0209834
0.0215606
0.0211314
0.0206426
0.0205929
0.0201721
0.0200885
0.0194648
0.0211301
0.0210145
0.0205466
0.0203035
0.020899
0.0207851
0.0201224
0.0200752
0.0197194
0.019301
0.0188
0.0183221
0.0191263
0.0194332
0.018584
0.0200436
0.0213567
0.0208844
0.0203222
0.0210778
0.0206595
0.0201223
0.0196546
0.018896
0.0194575
0.018729
0.0207965
0.0205272
0.0201397
0.0206218
0.020542
0.020393
0.0196478
0.0191612
0.0202144
0.0200748
0.0181649
0.0179874
0.0181675
0.0185893
0.019327
0.0223151
0.0208169
0.0232012
0.0189152
0.0197144
0.0200593
0.0203187
0.021289
0.0202105
0.019755
0.01664
0.020658
0.0204561
0.0201605
0.020202
0.020122
0.0197028
0.02
0.0195989
0.0201703
0.0207562
0.0220551
0.0230457
0.0205703
0.0196949
0.0222273
0.020131
0.0193137
0.0190584
0.0192094
0.019029
0.0189952
0.0191043
0.0191457
0.0194311
0.0187328
0.0183092
0.0177856
0.0163199
0.0186998
0.019482
0.0166375
0.018363
0.0244486
0.0236328
0.0222199
0.0186943
0.0215309
0.0197121
0.0173532
0.0188511
0.0160957
0.0138882
0.0139048
0.0150758
0.0155942
0.0191933
0.0178002
0.0199992
0.0178654
0.0155825
0.0205661
0.0196634
0.01415
0.0157027
0.0158703
0.0143703
0.0228236
0.0247218
0.0221222
0.0248884
0.0222917
0.0177324
0.026099
0.0229076
0.0197138
0.0200545
0.0196006
0.0199062
0.0193808
0.0193006
0.0195274
0.0197663
0.0194695
0.0196166
0.0192954
0.0193315
0.019058
0.0190092
0.0187824
0.0187631
0.0190646
0.0191773
0.0188499
0.0190068
0.0194171
0.0194509
0.0193506
0.0192676
0.0194069
0.0194762
0.019236
0.0190638
0.0191428
0.0188899
0.0194456
0.0194314
0.0193946
0.0196304
0.0194144
0.0198335
0.0196711
0.0197323
0.0197997
0.0198403
0.0186147
0.0186291
0.0186075
0.0187053
0.0187276
0.0189489
0.0189039
0.0193336
0.0188157
0.0190994
0.0190656
0.0194398
0.0195953
0.0203876
0.0200693
0.0205533
0.0195132
0.0199173
0.0196491
0.0196744
0.0197174
0.0197122
0.0201749
0.0206116
0.0205383
0.0201361
0.0203799
0.0201799
0.0208461
0.0216185
0.0204106
0.0209853
0.0191234
0.0187856
0.0191707
0.0187646
0.0195189
0.0196571
0.0192669
0.0188253
0.0194017
0.0189548
0.0197933
0.0199242
0.0199701
0.0202348
0.0203204
0.0208365
0.020403
0.0205054
0.0210573
0.0210959
0.0195694
0.019137
0.0197531
0.0193493
0.0200634
0.020202
0.019946
0.0195767
0.0201408
0.0198006
0.0203443
0.0204887
0.0205971
0.0206747
0.0211194
0.021127
0.0207546
0.0208394
0.0211427
0.0211686
0.0203539
0.0211951
0.0207825
0.021461
0.0215708
0.0215566
0.0218604
0.0217791
0.0217291
0.0219853
0.0217711
0.0218492
0.0218961
0.0216672
0.0213018
0.0211766
0.0215207
0.0214763
0.0217196
0.0216674
0.0214498