# vtk DataFile Version 2.0
Gerris simulation version 1.3.2 (131206-155120)
ASCII
DATASET UNSTRUCTURED_GRID

POINTS 1089 float
-0.5 0.46875 0
-0.46875 0.46875 0
-0.5 0.5 0
-0.46875 0.5 0
-0.4375 0.46875 0
-0.4375 0.5 0
-0.5 0.4375 0
-0.46875 0.4375 0
-0.4375 0.4375 0
-0.40625 0.46875 0
-0.40625 0.5 0
-0.375 0.46875 0
-0.375 0.5 0
-0.40625 0.4375 0
-0.375 0.4375 0
-0.5 0.40625 0
-0.46875 0.40625 0
-0.4375 0.40625 0
-0.5 0.375 0
-0.46875 0.375 0
-0.4375 0.375 0
-0.40625 0.40625 0
-0.375 0.40625 0
-0.40625 0.375 0
-0.375 0.375 0
-0.34375 0.46875 0
-0.34375 0.5 0
-0.3125 0.46875 0
-0.3125 0.5 0
-0.34375 0.4375 0
-0.3125 0.4375 0
-0.28125 0.46875 0
-0.28125 0.5 0
-0.25 0.46875 0
-0.25 0.5 0
-0.28125 0.4375 0
-0.25 0.4375 0
-0.34375 0.40625 0
-0.3125 0.40625 0
-0.34375 0.375 0
-0.3125 0.375 0
-0.28125 0.40625 0
-0.25 0.40625 0
-0.28125 0.375 0
-0.25 0.375 0
-0.5 0.34375 0
-0.46875 0.34375 0
-0.4375 0.34375 0
-0.5 0.3125 0
-0.46875 0.3125 0
-0.4375 0.3125 0
-0.40625 0.34375 0
-0.375 0.34375 0
-0.40625 0.3125 0
-0.375 0.3125 0
-0.5 0.28125 0
-0.46875 0.28125 0
-0.4375 0.28125 0
-0.5 0.25 0
-0.46875 0.25 0
-0.4375 0.25 0
-0.40625 0.28125 0
-0.375 0.28125 0
-0.40625 0.25 0
-0.375 0.25 0
-0.34375 0.34375 0
-0.3125 0.34375 0
-0.34375 0.3125 0
-0.3125 0.3125 0
-0.28125 0.34375 0
-0.25 0.34375 0
-0.28125 0.3125 0
-0.25 0.3125 0
-0.34375 0.28125 0
-0.3125 0.28125 0
-0.34375 0.25 0
-0.3125 0.25 0
-0.28125 0.28125 0
-0.25 0.28125 0
-0.28125 0.25 0
-0.25 0.25 0
-0.21875 0.46875 0
-0.21875 0.5 0
-0.1875 0.46875 0
-0.1875 0.5 0
-0.21875 0.4375 0
-0.1875 0.4375 0
-0.15625 0.46875 0
-0.15625 0.5 0
-0.125 0.46875 0
-0.125 0.5 0
-0.15625 0.4375 0
-0.125 0.4375 0
-0.21875 0.40625 0
-0.1875 0.40625 0
-0.21875 0.375 0
-0.1875 0.375 0
-0.15625 0.40625 0
-0.125 0.40625 0
-0.15625 0.375 0
-0.125 0.375 0
-0.09375 0.46875 0
-0.09375 0.5 0
-0.0625 0.46875 0
-0.0625 0.5 0
-0.09375 0.4375 0
-0.0625 0.4375 0
-0.03125 0.46875 0
-0.03125 0.5 0
0 0.46875 0
0 0.5 0
-0.03125 0.4375 0
0 0.4375 0
-0.09375 0.40625 0
-0.0625 0.40625 0
-0.09375 0.375 0
-0.0625 0.375 0
-0.03125 0.40625 0
0 0.40625 0
-0.03125 0.375 0
0 0.375 0
-0.21875 0.34375 0
-0.1875 0.34375 0
-0.21875 0.3125 0
-0.1875 0.3125 0
-0.15625 0.34375 0
-0.125 0.34375 0
-0.15625 0.3125 0
-0.125 0.3125 0
-0.21875 0.28125 0
-0.1875 0.28125 0
-0.21875 0.25 0
-0.1875 0.25 0
-0.15625 0.28125 0
-0.125 0.28125 0
-0.15625 0.25 0
-0.125 0.25 0
-0.09375 0.34375 0
-0.0625 0.34375 0
-0.09375 0.3125 0
-0.0625 0.3125 0
-0.03125 0.34375 0
0 0.34375 0
-0.03125 0.3125 0
0 0.3125 0
-0.09375 0.28125 0
-0.0625 0.28125 0
-0.09375 0.25 0
-0.0625 0.25 0
-0.03125 0.28125 0
0 0.28125 0
-0.03125 0.25 0
0 0.25 0
-0.5 0.21875 0
-0.46875 0.21875 0
-0.4375 0.21875 0
-0.5 0.1875 0
-0.46875 0.1875 0
-0.4375 0.1875 0
-0.40625 0.21875 0
-0.375 0.21875 0
-0.40625 0.1875 0
-0.375 0.1875 0
-0.5 0.15625 0
-0.46875 0.15625 0
-0.4375 0.15625 0
-0.5 0.125 0
-0.46875 0.125 0
-0.4375 0.125 0
-0.40625 0.15625 0
-0.375 0.15625 0
-0.40625 0.125 0
-0.375 0.125 0
-0.34375 0.21875 0
-0.3125 0.21875 0
-0.34375 0.1875 0
-0.3125 0.1875 0
-0.28125 0.21875 0
-0.25 0.21875 0
-0.28125 0.1875 0
-0.25 0.1875 0
-0.34375 0.15625 0
-0.3125 0.15625 0
-0.34375 0.125 0
-0.3125 0.125 0
-0.28125 0.15625 0
-0.25 0.15625 0
-0.28125 0.125 0
-0.25 0.125 0
-0.5 0.09375 0
-0.46875 0.09375 0
-0.4375 0.09375 0
-0.5 0.0625 0
-0.46875 0.0625 0
-0.4375 0.0625 0
-0.40625 0.09375 0
-0.375 0.09375 0
-0.40625 0.0625 0
-0.375 0.0625 0
-0.5 0.03125 0
-0.46875 0.03125 0
-0.4375 0.03125 0
-0.5 0 0
-0.46875 0 0
-0.4375 0 0
-0.40625 0.03125 0
-0.375 0.03125 0
-0.40625 0 0
-0.375 0 0
-0.34375 0.09375 0
-0.3125 0.09375 0
-0.34375 0.0625 0
-0.3125 0.0625 0
-0.28125 0.09375 0
-0.25 0.09375 0
-0.28125 0.0625 0
-0.25 0.0625 0
-0.34375 0.03125 0
-0.3125 0.03125 0
-0.34375 0 0
-0.3125 0 0
-0.28125 0.03125 0
-0.25 0.03125 0
-0.28125 0 0
-0.25 0 0
-0.21875 0.21875 0
-0.1875 0.21875 0
-0.21875 0.1875 0
-0.1875 0.1875 0
-0.15625 0.21875 0
-0.125 0.21875 0
-0.15625 0.1875 0
-0.125 0.1875 0
-0.21875 0.15625 0
-0.1875 0.15625 0
-0.21875 0.125 0
-0.1875 0.125 0
-0.15625 0.15625 0
-0.125 0.15625 0
-0.15625 0.125 0
-0.125 0.125 0
-0.09375 0.21875 0
-0.0625 0.21875 0
-0.09375 0.1875 0
-0.0625 0.1875 0
-0.03125 0.21875 0
0 0.21875 0
-0.03125 0.1875 0
0 0.1875 0
-0.09375 0.15625 0
-0.0625 0.15625 0
-0.09375 0.125 0
-0.0625 0.125 0
-0.03125 0.15625 0
0 0.15625 0
-0.03125 0.125 0
0 0.125 0
-0.21875 0.09375 0
-0.1875 0.09375 0
-0.21875 0.0625 0
-0.1875 0.0625 0
-0.15625 0.09375 0
-0.125 0.09375 0
-0.15625 0.0625 0
-0.125 0.0625 0
-0.21875 0.03125 0
-0.1875 0.03125 0
-0.21875 0 0
-0.1875 0 0
-0.15625 0.03125 0
-0.125 0.03125 0
-0.15625 0 0
-0.125 0 0
-0.09375 0.09375 0
-0.0625 0.09375 0
-0.09375 0.0625 0
-0.0625 0.0625 0
-0.03125 0.09375 0
0 0.09375 0
-0.03125 0.0625 0
0 0.0625 0
-0.09375 0.03125 0
-0.0625 0.03125 0
-0.09375 0 0
-0.0625 0 0
-0.03125 0.03125 0
0 0.03125 0
-0.03125 0 0
0 0 0
0.03125 0.46875 0
0.03125 0.5 0
0.0625 0.46875 0
0.0625 0.5 0
0.03125 0.4375 0
0.0625 0.4375 0
0.09375 0.46875 0
0.09375 0.5 0
0.125 0.46875 0
0.125 0.5 0
0.09375 0.4375 0
0.125 0.4375 0
0.03125 0.40625 0
0.0625 0.40625 0
0.03125 0.375 0
0.0625 0.375 0
0.09375 0.40625 0
0.125 0.40625 0
0.09375 0.375 0
0.125 0.375 0
0.15625 0.46875 0
0.15625 0.5 0
0.1875 0.46875 0
0.1875 0.5 0
0.15625 0.4375 0
0.1875 0.4375 0
0.21875 0.46875 0
0.21875 0.5 0
0.25 0.46875 0
0.25 0.5 0
0.21875 0.4375 0
0.25 0.4375 0
0.15625 0.40625 0
0.1875 0.40625 0
0.15625 0.375 0
0.1875 0.375 0
0.21875 0.40625 0
0.25 0.40625 0
0.21875 0.375 0
0.25 0.375 0
0.03125 0.34375 0
0.0625 0.34375 0
0.03125 0.3125 0
0.0625 0.3125 0
0.09375 0.34375 0
0.125 0.34375 0
0.09375 0.3125 0
0.125 0.3125 0
0.03125 0.28125 0
0.0625 0.28125 0
0.03125 0.25 0
0.0625 0.25 0
0.09375 0.28125 0
0.125 0.28125 0
0.09375 0.25 0
0.125 0.25 0
0.15625 0.34375 0
0.1875 0.34375 0
0.15625 0.3125 0
0.1875 0.3125 0
0.21875 0.34375 0
0.25 0.34375 0
0.21875 0.3125 0
0.25 0.3125 0
0.15625 0.28125 0
0.1875 0.28125 0
0.15625 0.25 0
0.1875 0.25 0
0.21875 0.28125 0
0.25 0.28125 0
0.21875 0.25 0
0.25 0.25 0
0.28125 0.46875 0
0.28125 0.5 0
0.3125 0.46875 0
0.3125 0.5 0
0.28125 0.4375 0
0.3125 0.4375 0
0.34375 0.46875 0
0.34375 0.5 0
0.375 0.46875 0
0.375 0.5 0
0.34375 0.4375 0
0.375 0.4375 0
0.28125 0.40625 0
0.3125 0.40625 0
0.28125 0.375 0
0.3125 0.375 0
0.34375 0.40625 0
0.375 0.40625 0
0.34375 0.375 0
0.375 0.375 0
0.40625 0.46875 0
0.40625 0.5 0
0.4375 0.46875 0
0.4375 0.5 0
0.40625 0.4375 0
0.4375 0.4375 0
0.46875 0.46875 0
0.46875 0.5 0
0.5 0.46875 0
0.5 0.5 0
0.46875 0.4375 0
0.5 0.4375 0
0.40625 0.40625 0
0.4375 0.40625 0
0.40625 0.375 0
0.4375 0.375 0
0.46875 0.40625 0
0.5 0.40625 0
0.46875 0.375 0
0.5 0.375 0
0.28125 0.34375 0
0.3125 0.34375 0
0.28125 0.3125 0
0.3125 0.3125 0
0.34375 0.34375 0
0.375 0.34375 0
0.34375 0.3125 0
0.375 0.3125 0
0.28125 0.28125 0
0.3125 0.28125 0
0.28125 0.25 0
0.3125 0.25 0
0.34375 0.28125 0
0.375 0.28125 0
0.34375 0.25 0
0.375 0.25 0
0.40625 0.34375 0
0.4375 0.34375 0
0.40625 0.3125 0
0.4375 0.3125 0
0.46875 0.34375 0
0.5 0.34375 0
0.46875 0.3125 0
0.5 0.3125 0
0.40625 0.28125 0
0.4375 0.28125 0
0.40625 0.25 0
0.4375 0.25 0
0.46875 0.28125 0
0.5 0.28125 0
0.46875 0.25 0
0.5 0.25 0
0.03125 0.21875 0
0.0625 0.21875 0
0.03125 0.1875 0
0.0625 0.1875 0
0.09375 0.21875 0
0.125 0.21875 0
0.09375 0.1875 0
0.125 0.1875 0
0.03125 0.15625 0
0.0625 0.15625 0
0.03125 0.125 0
0.0625 0.125 0
0.09375 0.15625 0
0.125 0.15625 0
0.09375 0.125 0
0.125 0.125 0
0.15625 0.21875 0
0.1875 0.21875 0
0.15625 0.1875 0
0.1875 0.1875 0
0.21875 0.21875 0
0.25 0.21875 0
0.21875 0.1875 0
0.25 0.1875 0
0.15625 0.15625 0
0.1875 0.15625 0
0.15625 0.125 0
0.1875 0.125 0
0.21875 0.15625 0
0.25 0.15625 0
0.21875 0.125 0
0.25 0.125 0
0.03125 0.09375 0
0.0625 0.09375 0
0.03125 0.0625 0
0.0625 0.0625 0
0.09375 0.09375 0
0.125 0.09375 0
0.09375 0.0625 0
0.125 0.0625 0
0.03125 0.03125 0
0.0625 0.03125 0
0.03125 0 0
0.0625 0 0
0.09375 0.03125 0
0.125 0.03125 0
0.09375 0 0
0.125 0 0
0.15625 0.09375 0
0.1875 0.09375 0
0.15625 0.0625 0
0.1875 0.0625 0
0.21875 0.09375 0
0.25 0.09375 0
0.21875 0.0625 0
0.25 0.0625 0
0.15625 0.03125 0
0.1875 0.03125 0
0.15625 0 0
0.1875 0 0
0.21875 0.03125 0
0.25 0.03125 0
0.21875 0 0
0.25 0 0
0.28125 0.21875 0
0.3125 0.21875 0
0.28125 0.1875 0
0.3125 0.1875 0
0.34375 0.21875 0
0.375 0.21875 0
0.34375 0.1875 0
0.375 0.1875 0
0.28125 0.15625 0
0.3125 0.15625 0
0.28125 0.125 0
0.3125 0.125 0
0.34375 0.15625 0
0.375 0.15625 0
0.34375 0.125 0
0.375 0.125 0
0.40625 0.21875 0
0.4375 0.21875 0
0.40625 0.1875 0
0.4375 0.1875 0
0.46875 0.21875 0
0.5 0.21875 0
0.46875 0.1875 0
0.5 0.1875 0
0.40625 0.15625 0
0.4375 0.15625 0
0.40625 0.125 0
0.4375 0.125 0
0.46875 0.15625 0
0.5 0.15625 0
0.46875 0.125 0
0.5 0.125 0
0.28125 0.09375 0
0.3125 0.09375 0
0.28125 0.0625 0
0.3125 0.0625 0
0.34375 0.09375 0
0.375 0.09375 0
0.34375 0.0625 0
0.375 0.0625 0
0.28125 0.03125 0
0.3125 0.03125 0
0.28125 0 0
0.3125 0 0
0.34375 0.03125 0
0.375 0.03125 0
0.34375 0 0
0.375 0 0
0.40625 0.09375 0
0.4375 0.09375 0
0.40625 0.0625 0
0.4375 0.0625 0
0.46875 0.09375 0
0.5 0.09375 0
0.46875 0.0625 0
0.5 0.0625 0
0.40625 0.03125 0
0.4375 0.03125 0
0.40625 0 0
0.4375 0 0
0.46875 0.03125 0
0.5 0.03125 0
0.46875 0 0
0.5 0 0
-0.5 -0.03125 0
-0.46875 -0.03125 0
-0.4375 -0.03125 0
-0.5 -0.0625 0
-0.46875 -0.0625 0
-0.4375 -0.0625 0
-0.40625 -0.03125 0
-0.375 -0.03125 0
-0.40625 -0.0625 0
-0.375 -0.0625 0
-0.5 -0.09375 0
-0.46875 -0.09375 0
-0.4375 -0.09375 0
-0.5 -0.125 0
-0.46875 -0.125 0
-0.4375 -0.125 0
-0.40625 -0.09375 0
-0.375 -0.09375 0
-0.40625 -0.125 0
-0.375 -0.125 0
-0.34375 -0.03125 0
-0.3125 -0.03125 0
-0.34375 -0.0625 0
-0.3125 -0.0625 0
-0.28125 -0.03125 0
-0.25 -0.03125 0
-0.28125 -0.0625 0
-0.25 -0.0625 0
-0.34375 -0.09375 0
-0.3125 -0.09375 0
-0.34375 -0.125 0
-0.3125 -0.125 0
-0.28125 -0.09375 0
-0.25 -0.09375 0
-0.28125 -0.125 0
-0.25 -0.125 0
-0.5 -0.15625 0
-0.46875 -0.15625 0
-0.4375 -0.15625 0
-0.5 -0.1875 0
-0.46875 -0.1875 0
-0.4375 -0.1875 0
-0.40625 -0.15625 0
-0.375 -0.15625 0
[...]
POINT_DATA 1089
SCALARS T float
LOOKUP_TABLE default
0
0
0
0
0
0
0
0
0
0
0
0
0
0
0
0
0
0
0
0
0
0
0
0
0
0
0
0
0
0
0
0
0
0
0
0
0
0
0
0
0
0
0
0
0
0
0
0
0
0
0
0
0
0
0
0
0
0
0
0
0
0
0
0
0
0
0
0
0
0
0
0
0
0
0
0
0
0
0
0
0
0
0
0
0
0
0
0
0
0
0
0
0
0
0
0
0
0
0
0
0
0
0
0
0
0
0
0
0
0
0
0
0
0
0
0
0
0
0
0
0
0
0
0
0
0
0
0
0
0
0
0
0
0
0
0
0
0
0
0
0
0
0
0
0
0
0
0
0
0
0
0
0
0
0
0
0
0
0
0
0
0
0
0
0
0
0
0
0
0
0
0
0
0
0
0
0
0
0
0
0
0
0
0
0
0
0
0
0
0
0
0
0
0
0
0
0
0
0
0
0
0
0
0
0
0
0
0
0.0027916
0
0
0
0
0
0
0
0
0
0
0.0745794
0.225661
0
0
0.361852
0.440656
0
0
0
0
0
0
0
0
0
0
0
0
0
0
0
0
0
0
0
0
0
0
0
0
0
0
0
0
0
0
0
0
0
0
0
0
0
0
0
0
0
0
0.46153
0.425761
0
0
0.332222
0.179068
0
0
0
0
0
0
0
0
0
0
0.0437548
0
0
0
0
0
0
0
0
0
0
0
0
0
0
0
0
0
0
0
0
0
0
0
0
0
0
0
0
0
0
0
0
0
0
0
0
0
0
0
0
0
0
0
0
0
0
0
0
0
0
0
0
0
0
0
0
0.101058
0.0156528
0.0454653
0.360806
0.53956
0
0
0
0
0
0
0
0
0.0302392
0.000426642
0.430133
0.151568
0
0
0.00124769
0
0
0
0
0
0
0
0
0
0
0
0
0
0
0
0
0
0
0
0
0
0
0
0
0
0
0
0
0
0
0
0
0
0
0
0
0
0
0
0
0
0
0
0
0
0
0
0
0
0
0
0
0
0
0
0
0
0
0
0
0
0
0
0
0
0
0
0
0
0
0
0
0
0.031243
0.37419
0.127037
0.618925
0.837042
0.994095
0.991889
1
0.203571
0.703571
0.162814
0.662814
1
1
1
1
0.899709
0.454375
0.999815
0.654809
0.0546662
0
0.154994
0
1
0.696022
0.999546
0.626614
0.196022
0
0.127068
0
0.0550969
0.471822
5.99015e-05
0.173309
0.916725
1
0.49046
0.621336
0
0.00652448
0
0
0.0737348
0.121336
0
0
0.879924
0.412545
0.434598
0.130472
0.0326216
0
0
0
0.0542197
9.38824e-05
0
0
0
0
0
0
0
0
0
0
0
0
0
0
0
0
0
0
0
0
0
0
0
0
0
0
0
0
0
0
0
0
0
0
0
0
0
0
0
0
0
0
0
0
0
0
0
0
0
0
0
0
0
0
0
0
0
0
0
0
0
0
0
0
0
0
0
0
0
0
0
0
0
0
0
0.0894071
0.0816084
0.301541
0.420702
0.798436
0
0.000558573
0.308317
0
0.00518228
0.473533
0.807444
0.999686
0.968351
1
0.54172
0.725661
0.967141
1
0.861852
0.940656
1
1
1
1
1
1
1
1
1
1
0
0.00480091
0.463713
0
0.000177208
0.278748
0.958913
1
0.77434
0.995769
0
0
0.0696586
0
0
0
0.372164
0.737433
0.0567368
0.241664
1
1
1
1
1
1
1
1
0.934321
0.999393
0.470563
0.655912
1
1
0.800062
0.889941
0.96153
0.925761
1
1
0.832222
0.678716
1
0.999647
1
1
1
1
1
1
1
1
0.472844
0.223555
0.929089
0.700635
0.0441131
0
0.295001
0.0238078
1
0.97708
1
1
0.622168
0.145088
0.782231
0.282231
1
1
1
1
1
1
1
1
1
1
0.923829
0.905212
1
1
0.832109
0.696111
1
1
1
0.980518
0.787439
0.287439
0.63475
0.154232
0.938544
0.716741
0.494577
0.236715
0.305941
0.0277435
0.0476794
0
0
0
0
0
0
0
0
0
0
0
0
0
0
0
0
0
0
0
0
0
0.0362419
0.156519
0
0
0.300062
0.389941
0
0
0
0
0
0
0
0
0
0
0
0
0
0
0
0
0
0
0
0
0
0
0
0
0
0
0
0
0
0
0
0
0
0
0
0
0
0
0
0
0
0
0
0
0
0
0.42383
0.405212
0
0
0.332109
0.196111
0
0
0
0
0
0
0
0
0
0
0.0560327
0.000492082
0
0
0
0
0
0
0
0
0
0
0
0
0
0
0
0
0
0
0
0
0
0
0
0
0
0
0
0
0
0
0
0
0
0
0
0
0
0
0
0
0
0
0
0
0
0
0
0
0
0.00415266
0
0
0.131295
0.296976
0
0.115233
0
0.248492
0.492375
0.796976
0.748492
1
0
0
0.263202
0.0933674
0
0
0
0
0.751539
0.340113
0.987473
0.50458
0.00840911
0
0.0171072
0
0
0.177231
0
0.0398192
0.661639
0.984408
0.291169
0.586132
0
0
0
0
0.0169412
0.101724
0
0
0.922892
0.43159
0.584765
0.249982
0.00869813
0
0
0
0.161009
0.0762263
0
0
0
0
0
0
0
0
0
0
0
0
0
0
0
0
0
0
0
0
0
0
0
0
0
0
0
0
0
0
0
0
0
0
0
0
0
0
0
0
0
0
0
0
0
0
0
0
0
0
0
0
0
0
0
0
0
0
0
0
0
0
0
0
0
0
0
0
0
0
0
0
0
0
0
0
0
0
0
0
0
0
0
0
0
0
0
0
0
0
0
0
0
0
0
0
0
0
0
0
0
0
0
0
0
0
0
0
0
0
0
0
0
0
0
0
0
0
0
0
0
0
0
0
0
0
0
0
0
0
0
0
0
0
0
0
0
0
0
0
0
0
0
0
0
0
0
0
0
0
0
0
0
0
0
0
0
0
0
0
0
0
0
0
0
0
0
0
0
0
0
0
0
0
0
0
0
0
0
0
0
0
0
0
0
0
0
0
0
0
0
0
0
0
0
0
0
0

SCALARS P float
LOOKUP_TABLE default
-0.0066214
-0.00615371
-0.0067792
-0.00627149
-0.00567556
-0.00572465
-0.00647706
-0.0060513
-0.00562475
-0.00520183
-0.0051677
-0.00475901
-0.00463617
-0.00520984
-0.00482714
-0.00634331
-0.00595178
-0.00556345
-0.00621319
-0.00585007
-0.00548893
-0.00518868
-0.00484416
-0.00513902
-0.00481504
-0.00437785
-0.00417324
-0.00409107
-0.00382709
-0.00450002
-0.00425267
-0.00392466
-0.00363139
-0.0038895
-0.00359203
-0.00410538
-0.00406961
-0.00454874
-0.00432179
-0.00453361
-0.00431177
-0.00418032
-0.00413583
-0.00416483
-0.00410389
-0.00608447
-0.00574534
-0.00540194
-0.00596109
-0.00564271
-0.00530816
-0.00506354
-0.00474458
-0.00496836
-0.00463932
-0.00585532
-0.00555303
-0.00521698
-0.00578652
-0.00549334
-0.00514276
-0.0048612
-0.00450545
-0.00475318
-0.00435061
-0.00446144
-0.00423072
-0.00433918
-0.00408597
-0.00406737
-0.00398211
-0.00389544
-0.00377767
-0.00417202
-0.00388289
-0.00396403
-0.00362285
-0.00365618
-0.00350068
-0.0033496
-0.00315117
-0.00399034
-0.00371098
-0.00422751
-0.00398658
-0.0041515
-0.00435344
-0.00459295
-0.00440566
-0.00507629
-0.00495266
-0.00467263
-0.00510461
-0.00419561
-0.00436397
-0.00413674
-0.00426899
-0.00464259
-0.00503281
-0.00450568
-0.00485288
-0.00566248
-0.00560721
-0.00632653
-0.00632905
-0.00564225
-0.00627477
-0.0070388
-0.00707485
-0.00777736
-0.00780904
-0.00698124
-0.00776005
-0.00553475
-0.00615267
-0.00531665
-0.0059204
-0.00687297
-0.007727
-0.00665371
-0.00760341
-0.0039827
-0.0040753
-0.00373929
-0.00378502
-0.00426597
-0.00456417
-0.00391769
-0.00414635
-0.00342074
-0.00341755
-0.00302866
-0.00297893
-0.00348606
-0.00362783
-0.00298307
-0.00302995
-0.00497865
-0.00555526
-0.00447439
-0.00497065
-0.00627919
-0.0073401
-0.00561416
-0.00673439
-0.00383146
-0.00417366
-0.00309109
-0.00320063
-0.00461774
-0.0056316
-0.00333102
-0.00375381
-0.00578343
-0.00548644
-0.00510244
-0.00588633
-0.00556644
-0.00512481
-0.00465464
-0.00417862
-0.00458703
-0.00400048
-0.0061305
-0.00576002
-0.00522615
-0.0065668
-0.00613004
-0.00547723
-0.00455272
-0.00380403
-0.00461488
-0.003619
-0.00371493
-0.00330741
-0.0034212
-0.00291949
-0.0029843
-0.00274521
-0.00253534
-0.00225725
-0.00306588
-0.00246144
-0.00261795
-0.00184934
-0.00203364
-0.00173517
-0.00137084
-0.00105949
-0.00721519
-0.00669868
-0.00588998
-0.00814879
-0.00758434
-0.00662304
-0.00475868
-0.00338437
-0.00512981
-0.00312454
-0.00942623
-0.00893326
-0.00791495
-0.0110198
-0.0107255
-0.0097236
-0.00597456
-0.00282525
-0.00720316
-0.00213329
-0.00200485
-0.00108975
-0.00102633
0.000136683
-0.000635953
-0.00033669
0.000450588
0.000662786
0.000552664
0.00199991
0.00480865
0.0108636
0.00198378
0.00204715
0.0154126
0.0185433
-0.00258703
-0.0025009
-0.00208125
-0.00199673
-0.00244512
-0.0023841
-0.00194252
-0.00186908
-0.00157052
-0.00153561
-0.000932474
-0.000990361
-0.00155622
-0.0015945
-0.00115381
-0.00140585
-0.00225108
-0.00192376
-0.00169049
-0.00113291
-0.00135243
-6.14727e-05
-9.88659e-05
0.00243545
-0.00161834
-0.0012933
-0.00181316
-0.00199159
-0.000516487
0.00176174
-0.00176076
-0.000361662
-0.000267141
-0.000451647
0.000624241
0.000316714
-0.000793848
-0.00127934
-0.000154938
-0.000818029
0.0019257
0.00154497
0.0192641
0.0174979
0.0010424
0.000463815
0.013425
0.0080659
-0.00225618
-0.00336616
-0.00260351
-0.00512121
-0.00418726
-0.00451655
-0.00729233
-0.00946505
-0.00221389
-0.00664424
0.000536801
-0.00781464
-0.0102181
-0.0133047
-0.0132134
-0.0164408
-0.00849872
-0.00848873
-0.009174
-0.00908842
-0.008562
-0.00936132
-0.0097594
-0.00958133
-0.0101564
-0.00991768
-0.0101028
-0.0105997
-0.00864985
-0.0096425
-0.00869385
-0.0100077
-0.0106561
-0.0113292
-0.0115253
-0.0125332
-0.0103134
-0.0100721
-0.010242
-0.0100578
-0.0107488
-0.0105659
-0.0100256
-0.00992466
-0.00973059
-0.00971469
-0.010211
-0.00979507
-0.011457
-0.0110687
-0.0126009
-0.0117982
-0.0104862
-0.00989883
-0.0108167
-0.00998988
-0.0086431
-0.0104134
-0.00821327
-0.0107112
-0.0127652
-0.0143753
-0.0147489
-0.0176429
-0.0072885
-0.0111378
-0.005174
0.00257116
-0.014599
-0.0131884
0.0335984
0.059682
-0.0143339
-0.0127871
-0.0172559
-0.0140827
-0.0111568
-0.0100181
-0.0112682
-0.00977766
-0.0156324
-0.0160425
0.0420539
0.0046569
-0.0110779
-0.0090723
-0.00973346
-0.00744975
-0.00938703
-0.00945088
-0.00902769
-0.00915469
-0.00934689
-0.00891484
-0.00865896
-0.00883335
-0.00828342
-0.00848867
-0.00849714
-0.00809425
-0.00931106
-0.00879558
-0.00922522
-0.00862694
-0.00832785
-0.00790287
-0.00811877
-0.00768631
-0.00789705
-0.00811732
-0.00749396
-0.00771361
-0.00769827
-0.00730044
-0.00706962
-0.00727266
-0.0066214
-0.00680221
-0.00689453
-0.00647706
-0.00750423
-0.00711728
-0.00729873
-0.00693273
-0.00673223
-0.00634331
-0.0065738
-0.00621319
-0.0090391
-0.00837214
-0.00859947
-0.00793277
-0.00784368
-0.00742737
-0.00744489
-0.00709597
-0.00780195
-0.00726433
-0.00654385
-0.00632556
-0.00691503
-0.00669983
-0.00625632
-0.00625504
-0.007071
-0.00674019
-0.00680793
-0.00653615
-0.00641529
-0.00608447
-0.00625819
-0.00596109
-0.00652272
-0.00633478
-0.0062365
-0.00615826
-0.00611601
-0.00585532
-0.00600998
-0.00578652
0.0024784
0.0345575
0.0140694
0.059336
0.0901781
0.117317
0.101142
0.107778
0.020146
0.0671948
0.0146013
0.0636228
0.101916
0.1057
0.103176
0.106214
0.101075
0.0428902
0.10436
0.063236
5.23055e-05
-0.00336036
0.0141515
0.000542059
0.101223
0.0662389
0.100418
0.0597838
0.0195673
0.00162481
0.0129159
0.000254097
4.22136e-06
0.0455252
-0.0115236
0.00706291
0.100936
0.112622
0.0496765
0.0677226
-0.0161583
-0.0201768
-0.0190374
-0.0227938
-0.012971
-0.00564605
-0.0269474
-0.0278917
0.0914867
0.0387641
0.0394049
0.00410991
0.00124112
-0.0030348
-0.00748994
-0.00712216
-0.0128029
-0.015436
-0.0221103
-0.0166164
-0.0123112
-0.0105984
-0.0149149
-0.0129214
-0.00424269
-0.00492528
-0.00221617
-0.00380088
-0.00544978
-0.00580003
-0.00487841
-0.00553778
-0.00170327
-0.00360617
-0.00255213
-0.00424161
-0.00487803
-0.00564921
-0.00541436
-0.00614308
-0.00599723
-0.00604966
-0.0059213
-0.00608182
-0.00597553
-0.00578343
-0.00606385
-0.00588633
-0.00611163
-0.00631938
-0.00659031
-0.00679366
-0.00632054
-0.0061305
-0.00678556
-0.0065668
-0.00460361
-0.00565419
-0.00730235
-0.00757841
-0.00645694
-0.00699919
-0.00788581
-0.0081567
-0.00986797
-0.00951785
-0.0118885
-0.0111973
-0.00940668
-0.00943674
-0.0108316
-0.0107123
-0.00734711
-0.00750493
-0.00835891
-0.00845776
-0.00746984
-0.00721519
-0.00840856
-0.00814879
-0.00952079
-0.00959899
-0.0107435
-0.0108647
-0.00959627
-0.00942623
-0.0109905
-0.0110198
-0.0131144
-0.0135747
-0.0136251
-0.0155834
-0.0175074
-0.0116236
-0.00556711
0.0117972
0.0158269
0.0413722
-0.0173717
-0.0203906
0.00434623
-0.018151
-0.0214385
0.0186788
0.0465336
0.0579579
0.0616647
0.0587675
0.0240582
0.0296137
0.0450336
0.0432055
0.0346613
0.0379476
0.0427238
0.0424885
0.051086
0.0470122
0.0525913
0.048533
0.0450904
0.0441848
0.0462747
0.0451852
-0.0182342
-0.0215043
0.017794
-0.017536
-0.0204234
0.00187921
0.0608073
0.0587049
0.0438755
0.0576013
-0.0157978
-0.0175107
-0.013131
-0.0134688
-0.0137496
-0.0136035
0.0125097
0.0379674
-0.00707441
0.0087997
0.0523811
0.0482563
0.0504098
0.0461126
0.0460517
0.045045
0.0444143
0.043793
0.0421178
0.0410075
0.0211989
0.0265499
0.0413127
0.0417615
0.0316828
0.0355525
0.0387446
0.0371163
0.0423671
0.0423545
0.0329343
0.0271307
0.0422648
0.0423937
0.043901
0.0441376
0.0448802
0.0452858
0.0449223
0.0467008
0.0464046
0.0485192
0.019194
0.0015888
0.0426826
0.0319822
-0.0157005
-0.0206809
-0.000762968
-0.023349
0.0507184
0.0545404
0.0519804
0.0567005
0.0252542
-0.0142985
0.0386953
-0.002268
0.0448145
0.0453152
0.0437093
0.0442283
0.0466108
0.0489046
0.0455771
0.0479302
0.0419098
0.0422759
0.0368561
0.0361582
0.0431757
0.0445237
0.0334929
0.0284019
0.0524281
0.0572333
0.0519454
0.0564005
0.0396981
-0.00157045
0.0281186
-0.0120529
0.0450671
0.0354664
0.0206896
0.00429039
0.00332479
-0.0197369
-0.0123497
-0.0165816
-0.0115402
-0.0110608
-0.00988319
-0.0101109
-0.00939209
-0.00816277
-0.0072348
-0.00192009
-0.00604425
-0.00263219
-0.00900712
-0.00818896
-0.00699652
-0.00822926
-0.00743916
-0.00640307
-0.00529193
-0.00306491
-0.00507757
-0.00352952
0.004743
0.00992715
0.00108523
0.00281237
0.0138821
0.0169445
0.00270798
0.00246162
-0.000789846
0.000482644
-0.00202969
-0.00108182
0.00072503
0.000677486
-0.000736726
-0.000681061
-0.0076852
-0.00696164
-0.00608062
-0.00728762
-0.00663582
-0.00588803
-0.00503972
-0.00391402
-0.00505903
-0.00421243
-0.00700686
-0.0064273
-0.0057932
-0.00680221
-0.00627149
-0.00572465
-0.00512245
-0.00446185
-0.0051677
-0.00463617
-0.00285246
-0.00210744
-0.00344433
-0.00288844
-0.00176004
-0.00169344
-0.00260146
-0.00254163
-0.00387301
-0.0034328
-0.00417324
-0.00382709
-0.00318873
-0.00313635
-0.00363139
-0.00359203
0.0179972
0.0167703
0.00223375
0.00154225
0.0130441
0.0070322
0.000144824
-0.00131639
0.000440054
-0.000132947
-0.000889525
-0.00141431
-0.00118809
-0.00246211
-0.0022741
-0.00333911
-0.00013824
-0.00705542
-0.0034099
-0.00675202
-0.0113885
-0.0127355
-0.00955587
-0.0108556
-0.00419689
-0.00645132
-0.00470244
-0.00629618
-0.00838177
-0.00958844
-0.00772867
-0.00879689
-0.00188201
-0.00232751
-0.00270138
-0.00307945
-0.00302713
-0.00393177
-0.00365732
-0.00440145
-0.00327378
-0.00359743
-0.00371098
-0.00398658
-0.00408978
-0.00472838
-0.00440566
-0.00495266
-0.00505249
-0.00627878
-0.00529957
-0.00627253
-0.00741024
-0.00834136
-0.00721118
-0.00804393
-0.00548905
-0.0063108
-0.00560721
-0.00632905
-0.00712786
-0.00789163
-0.00707485
-0.00780904
-0.021623
-0.0231685
-0.0237088
-0.0230872
-0.0246016
-0.0253494
-0.00143395
0.027737
-0.0230125
-0.00288087
-0.0219343
0.0229699
0.06347
0.121528
0.110343
0.160865
-0.0224965
-0.0198286
0.0187383
-0.0115534
-0.018308
-0.0153891
-0.0217912
-0.0172871
0.108796
0.0303226
0.156789
0.0652719
-0.0227387
-0.0192844
-0.0178492
-0.0189052
-0.0211876
0.0134654
-0.020254
-0.00972421
0.0938228
0.154004
0.0326573
0.0875385
-0.0188332
-0.0167876
-0.0155899
-0.0148327
-0.0100407
0.00419748
-0.0121565
-0.0160075
0.144009
0.054076
0.0838237
0.0240198
-0.0149363
-0.0160206
-0.0110817
-0.0118107
0.0106115
1.82479e-05
-0.0141699
-0.0087643
-0.00905997
-0.0103808
-0.011152
-0.01117
-0.0138809
-0.0128096
-0.0151955
-0.013922
-0.0121925
-0.0119503
-0.0131986
-0.0129521
-0.0163078
-0.0148191
-0.0162125
-0.0149769
-0.0139795
-0.0137218
-0.0142369
-0.0140639
-0.011974
-0.012216
-0.013057
-0.0135079
-0.0126112
-0.0131144
-0.0143138
-0.0155834
-0.0138835
-0.0144793
-0.0143059
-0.0149936
-0.0155843
-0.0173717
-0.0162288
-0.018151
-0.0147737
-0.0142824
-0.0126364
-0.0130192
-0.0139339
-0.0139755
-0.0132104
-0.0135038
-0.0116673
-0.0121982
-0.0115996
-0.011841
-0.0125392
-0.0128743
-0.0120297
-0.0122355
-0.0143197
-0.015059
-0.0139357
-0.0146576
-0.0163108
-0.0182342
-0.0157904
-0.017536
-0.0132663
-0.013829
-0.0124624
-0.0127491
-0.0146291
-0.0157978
-0.0130877
-0.0134688
-0.0129843
-0.0128322
-0.0113714
-0.0114492
-0.0116652
-0.0134999
-0.0110125
-0.0116387
-0.0102675
-0.0105653
-0.00950877
-0.00992596
-0.0105679
-0.0108776
-0.0101391
-0.0103759
-0.012287
-0.00932394
-0.0111799
-0.0101459
-0.0103344
-0.0104935
-0.0105188
-0.0105598
-0.01067
-0.0101953
-0.0103476
-0.0101708
-0.0102784
-0.0103055
-0.0101664
-0.010144
-0.00903564
-0.00951585
-0.00872258
-0.00924452
-0.00983553
-0.0100689
-0.00962881
-0.00989023
-0.00855818
-0.00911139
-0.00848873
-0.00908842
-0.0095442
-0.00983874
-0.00958133
-0.00991768
-0.0101288
-0.0100767
-0.010003
-0.0100012
-0.01004
-0.00997733
-0.00994538
-0.00984267
-0.0099799
-0.00998733
-0.0100721
-0.0100578
-0.00990342
-0.0097543
-0.00992466
-0.00971469
-0.010891
-0.0111644
-0.0106944
-0.0107947
-0.0113502
-0.0114932
-0.0108484
-0.0108614
-0.0103532
-0.0103751
-0.0101066
-0.0100416
-0.0103513
-0.0102741
-0.00993561
-0.00977634
-0.0115961
-0.0116663
-0.0108226
-0.0107154
-0.0116696
-0.0115402
-0.0105005
-0.0101109
-0.010131
-0.00989951
-0.00955113
-0.00923844
-0.00954402
-0.00900712
-0.00881111
-0.00822926
-0.0098819
-0.00975183
-0.00969534
-0.00950866
-0.00958107
-0.00935978
-0.00928272
-0.00901216
-0.00955331
-0.0093131
-0.00945088
-0.00915469
-0.00903825
-0.00872776
-0.00883335
-0.00848867
-0.00907758
-0.00871788
-0.00868943
-0.00830285
-0.00826215
-0.0076852
-0.00784042
-0.00728762
-0.00837687
-0.00797795
-0.00811732
-0.00771361
-0.00752376
-0.00700686
-0.00727266
-0.0067792

SCALARS U float
LOOKUP_TABLE default
0.0224578
0.0232793
0.0224461
0.0234336
0.0239648
0.0243554
0.0226208
0.0232617
0.0237616
0.0244625
0.0250792
0.0247176
0.0255188
0.0240825
0.0241889
0.0228907
0.0233846
0.0237346
0.0232805
0.0236516
0.0238782
0.023912
0.0238913
0.0239354
0.0238015
0.0246864
0.0256062
0.0243601
0.0253249
0.024053
0.023673
0.0237373
0.0246444
0.0228566
0.0235862
0.023061
0.0222612
0.0236542
0.0232028
0.0234607
0.0229164
0.0225558
0.021759
0.0221886
0.0213238
0.0237974
0.0240642
0.0241896
0.0244411
0.0246207
0.0246685
0.0241467
0.0239106
0.0245479
0.0242239
0.0251969
0.0253138
0.0253155
0.0260339
0.0261269
0.0261312
0.0251491
0.0247601
0.0259685
0.0255543
0.0234624
0.0228023
0.0236672
0.0228703
0.0219475
0.0209449
0.0218423
0.0206276
0.0241019
0.0231534
0.024815
0.023711
0.0219069
0.0204003
0.0222027
0.0203112
0.0218275
0.0223038
0.0207934
0.0210069
0.0213604
0.020468
0.0198923
0.0198919
0.0192168
0.0190694
0.019693
0.0191214
0.0208885
0.0200402
0.0203961
0.0195005
0.0193134
0.0187977
0.018739
0.0182147
0.0188055
0.0185618
0.0186691
0.0183827
0.0188031
0.0187546
0.0187734
0.0185039
0.0189894
0.0187768
0.018955
0.019272
0.0185607
0.0186367
0.0180243
0.0182314
0.0190408
0.0196203
0.0189273
0.0199292
0.0198728
0.0188341
0.0193142
0.0180182
0.0179423
0.0173183
0.0168671
0.0159902
0.0187396
0.0170639
0.0181757
0.0159738
0.0155171
0.0142125
0.013873
0.0119333
0.0170947
0.0173625
0.0155412
0.0155958
0.0183323
0.0197416
0.0164853
0.0179238
0.0132621
0.0126161
0.0101309
0.00827279
0.0127101
0.0137811
0.00668816
0.00688667
0.0268993
0.0270344
0.0271157
0.027724
0.0280027
0.0282731
0.0270328
0.0266579
0.0283858
0.0281383
0.0284511
0.0289919
0.0295968
0.0290169
0.0299559
0.0310672
0.0300573
0.0300361
0.0320059
0.0321023
0.0258808
0.0246392
0.0273684
0.0260103
0.0228322
0.0204457
0.0238757
0.0208785
0.029308
0.0278662
0.0310492
0.02926
0.0253854
0.0216329
0.0264839
0.0222107
0.0292347
0.0306558
0.032369
0.0289079
0.0308399
0.0330622
0.0336711
0.0331797
0.0339026
0.0302686
0.0275299
0.0297709
0.0320633
0.0247533
0.027177
0.0296639
0.0306943
0.0207696
0.026226
0.0141744
0.0307182
0.0278813
0.0227235
0.0168492
0.0249742
0.021325
0.0152038
0.0163483
0.00637063
-0.000900906
0.00325004
0.00184802
0.00179153
0.0101095
0.00630166
0.0118148
0.0176864
0.0148199
0.0173365
0.0136936
0.0120884
0.00950085
0.0103705
0.00740064
0.017099
0.0125147
0.0169694
0.0117306
0.00858762
0.00543655
0.00737159
0.00393648
0.00688587
0.0040238
0.00468633
0.0023153
0.000532833
-0.0021658
-0.000386567
-0.00462464
0.00307663
0.00210126
0.0013011
0.000661564
0.00212498
0.00037977
0.00191789
0.00377199
0.0171369
0.0128268
0.0186022
0.0200959
0.00883876
0.00506565
0.0195404
0.0156056
0.0205652
0.0296609
0.0177092
0.0231438
0.0351399
0.033894
0.0282396
0.0321349
0.00118349
-0.000664978
0.00748963
0.000384928
0.000730874
0.00613627
-0.000525768
0.00480101
0.0217084
0.00618113
0.0259305
0.0105377
0.00022929
0.00277551
0.0025369
0.00459463
0.0191488
0.0189893
0.0190511
0.0189286
0.0195552
0.0195607
0.0184753
0.0184096
0.0174738
0.0174766
0.0188789
0.0175436
0.0202606
0.0206211
0.0212625
0.0224682
0.0198034
0.0177436
0.0215713
0.0182044
0.0164075
0.0164274
0.0156732
0.0155986
0.0161484
0.0153393
0.0154505
0.0151898
0.0156516
0.0152054
0.0153174
0.0157893
0.0155529
0.0144584
0.0144976
0.0128628
0.0147367
0.0156406
0.0137107
0.0153131
0.0221583
0.0252089
0.0225325
0.0303844
0.0245566
0.0189909
0.0308903
0.0203293
0.0226948
0.039329
0.0159516
0.0323569
0.0417077
0.0227422
0.0352076
0.0221595
0.0126987
0.0104122
0.0083541
0.00550982
0.0125584
0.015239
0.0114444
0.0164463
0.00129332
-0.00270534
0.00686057
0.00302626
0.0101162
0.0197229
0.0155822
0.0259039
0.0161604
0.0155769
0.0168856
0.0162213
0.0165246
0.0174108
0.0177395
0.0170562
0.018668
0.0180205
0.0183419
0.0192767
0.0167238
0.0178652
0.0168742
0.0183636
0.0189286
0.0199022
0.0195949
0.0206172
0.0196316
0.0190678
0.0206022
0.0201654
0.0201885
0.0210611
0.0215534
0.021282
0.0224578
0.0223261
0.0218783
0.0226208
0.0207835
0.0215769
0.0214685
0.0221852
0.0222821
0.0228907
0.0227881
0.0232805
0.0172559
0.019087
0.0186226
0.0204643
0.0204572
0.0214966
0.0217418
0.0226549
0.0217663
0.0228855
0.0271753
0.0266305