# vtk DataFile Version 2.0
Gerris simulation version 1.3.2 (131206-155120)
ASCII
DATASET UNSTRUCTURED_GRID

POINTS 1089 float
-0.5 0.46875 0
-0.46875 0.46875 0
-0.5 0.5 0
-0.46875 0.5 0
-0.4375 0.46875 0
-0.4375 0.5 0
-0.5 0.4375 0
-0.46875 0.4375 0
-0.4375 0.4375 0
-0.40625 0.46875 0
-0.40625 0.5 0
-0.375 0.46875 0
-0.375 0.5 0
-0.40625 0.4375 0
-0.375 0.4375 0
-0.5 0.40625 0
-0.46875 0.40625 0
-0.4375 0.40625 0
-0.5 0.375 0
-0.46875 0.375 0
-0.4375 0.375 0
-0.40625 0.40625 0
-0.375 0.40625 0
-0.40625 0.375 0
-0.375 0.375 0
-0.34375 0.46875 0
-0.34375 0.5 0
-0.3125 0.46875 0
-0.3125 0.5 0
-0.34375 0.4375 0
-0.3125 0.4375 0
-0.28125 0.46875 0
-0.28125 0.5 0
-0.25 0.46875 0
-0.25 0.5 0
-0.28125 0.4375 0
-0.25 0.4375 0
-0.34375 0.40625 0
-0.3125 0.40625 0
-0.34375 0.375 0
-0.3125 0.375 0
-0.28125 0.40625 0
-0.25 0.40625 0
-0.28125 0.375 0
-0.25 0.375 0
-0.5 0.34375 0
-0.46875 0.34375 0
-0.4375 0.34375 0
-0.5 0.3125 0
-0.46875 0.3125 0
-0.4375 0.3125 0
-0.40625 0.34375 0
-0.375 0.34375 0
-0.40625 0.3125 0
-0.375 0.3125 0
-0.5 0.28125 0
-0.46875 0.28125 0
-0.4375 0.28125 0
-0.5 0.25 0
-0.46875 0.25 0
-0.4375 0.25 0
-0.40625 0.28125 0
-0.375 0.28125 0
-0.40625 0.25 0
-0.375 0.25 0
-0.34375 0.34375 0
-0.3125 0.34375 0
-0.34375 0.3125 0
-0.3125 0.3125 0
-0.28125 0.34375 0
-0.25 0.34375 0
-0.28125 0.3125 0
-0.25 0.3125 0
-0.34375 0.28125 0
-0.3125 0.28125 0
-0.34375 0.25 0
-0.3125 0.25 0
-0.28125 0.28125 0
-0.25 0.28125 0
-0.28125 0.25 0
-0.25 0.25 0
-0.21875 0.46875 0
-0.21875 0.5 0
-0.1875 0.46875 0
-0.1875 0.5 0
-0.21875 0.4375 0
-0.1875 0.4375 0
-0.15625 0.46875 0
-0.15625 0.5 0
-0.125 0.46875 0
-0.125 0.5 0
-0.15625 0.4375 0
-0.125 0.4375 0
-0.21875 0.40625 0
-0.1875 0.40625 0
-0.21875 0.375 0
-0.1875 0.375 0
-0.15625 0.40625 0
-0.125 0.40625 0
-0.15625 0.375 0
-0.125 0.375 0
-0.09375 0.46875 0
-0.09375 0.5 0
-0.0625 0.46875 0
-0.0625 0.5 0
-0.09375 0.4375 0
-0.0625 0.4375 0
-0.03125 0.46875 0
-0.03125 0.5 0
0 0.46875 0
0 0.5 0
-0.03125 0.4375 0
0 0.4375 0
-0.09375 0.40625 0
-0.0625 0.40625 0
-0.09375 0.375 0
-0.0625 0.375 0
-0.03125 0.40625 0
0 0.40625 0
-0.03125 0.375 0
0 0.375 0
-0.21875 0.34375 0
-0.1875 0.34375 0
-0.21875 0.3125 0
-0.1875 0.3125 0
-0.15625 0.34375 0
-0.125 0.34375 0
-0.15625 0.3125 0
-0.125 0.3125 0
-0.21875 0.28125 0
-0.1875 0.28125 0
-0.21875 0.25 0
-0.1875 0.25 0
-0.15625 0.28125 0
-0.125 0.28125 0
-0.15625 0.25 0
-0.125 0.25 0
-0.09375 0.34375 0
-0.0625 0.34375 0
-0.09375 0.3125 0
-0.0625 0.3125 0
-0.03125 0.34375 0
0 0.34375 0
-0.03125 0.3125 0
0 0.3125 0
-0.09375 0.28125 0
-0.0625 0.28125 0
-0.09375 0.25 0
-0.0625 0.25 0
-0.03125 0.28125 0
0 0.28125 0
-0.03125 0.25 0
0 0.25 0
-0.5 0.21875 0
-0.46875 0.21875 0
-0.4375 0.21875 0
-0.5 0.1875 0
-0.46875 0.1875 0
-0.4375 0.1875 0
-0.40625 0.21875 0
-0.375 0.21875 0
-0.40625 0.1875 0
-0.375 0.1875 0
-0.5 0.15625 0
-0.46875 0.15625 0
-0.4375 0.15625 0
-0.5 0.125 0
-0.46875 0.125 0
-0.4375 0.125 0
-0.40625 0.15625 0
-0.375 0.15625 0
-0.40625 0.125 0
-0.375 0.125 0
-0.34375 0.21875 0
-0.3125 0.21875 0
-0.34375 0.1875 0
-0.3125 0.1875 0
-0.28125 0.21875 0
-0.25 0.21875 0
-0.28125 0.1875 0
-0.25 0.1875 0
-0.34375 0.15625 0
-0.3125 0.15625 0
-0.34375 0.125 0
-0.3125 0.125 0
-0.28125 0.15625 0
-0.25 0.15625 0
-0.28125 0.125 0
-0.25 0.125 0
-0.5 0.09375 0
-0.46875 0.09375 0
-0.4375 0.09375 0
-0.5 0.0625 0
-0.46875 0.0625 0
-0.4375 0.0625 0
-0.40625 0.09375 0
-0.375 0.09375 0
-0.40625 0.0625 0
-0.375 0.0625 0
-0.5 0.03125 0
-0.46875 0.03125 0
-0.4375 0.03125 0
-0.5 0 0
-0.46875 0 0
-0.4375 0 0
-0.40625 0.03125 0
-0.375 0.03125 0
-0.40625 0 0
-0.375 0 0
-0.34375 0.09375 0
-0.3125 0.09375 0
-0.34375 0.0625 0
-0.3125 0.0625 0
-0.28125 0.09375 0
-0.25 0.09375 0
-0.28125 0.0625 0
-0.25 0.0625 0
-0.34375 0.03125 0
-0.3125 0.03125 0
-0.34375 0 0
-0.3125 0 0
-0.28125 0.03125 0
-0.25 0.03125 0
-0.28125 0 0
-0.25 0 0
-0.21875 0.21875 0
-0.1875 0.21875 0
-0.21875 0.1875 0
-0.1875 0.1875 0
-0.15625 0.21875 0
-0.125 0.21875 0
-0.15625 0.1875 0
-0.125 0.1875 0
-0.21875 0.15625 0
-0.1875 0.15625 0
-0.21875 0.125 0
-0.1875 0.125 0
-0.15625 0.15625 0
-0.125 0.15625 0
-0.15625 0.125 0
-0.125 0.125 0
-0.09375 0.21875 0
-0.0625 0.21875 0
-0.09375 0.1875 0
-0.0625 0.1875 0
-0.03125 0.21875 0
0 0.21875 0
-0.03125 0.1875 0
0 0.1875 0
-0.09375 0.15625 0
-0.0625 0.15625 0
-0.09375 0.125 0
-0.0625 0.125 0
-0.03125 0.15625 0
0 0.15625 0
-0.03125 0.125 0
0 0.125 0
-0.21875 0.09375 0
-0.1875 0.09375 0
-0.21875 0.0625 0
-0.1875 0.0625 0
-0.15625 0.09375 0
-0.125 0.09375 0
-0.15625 0.0625 0
-0.125 0.0625 0
-0.21875 0.03125 0
-0.1875 0.03125 0
-0.21875 0 0
-0.1875 0 0
-0.15625 0.03125 0
-0.125 0.03125 0
-0.15625 0 0
-0.125 0 0
-0.09375 0.09375 0
-0.0625 0.09375 0
-0.09375 0.0625 0
-0.0625 0.0625 0
-0.03125 0.09375 0
0 0.09375 0
-0.03125 0.0625 0
0 0.0625 0
-0.09375 0.03125 0
-0.0625 0.03125 0
-0.09375 0 0
-0.0625 0 0
-0.03125 0.03125 0
0 0.03125 0
-0.03125 0 0
0 0 0
0.03125 0.46875 0
0.03125 0.5 0
0.0625 0.46875 0
0.0625 0.5 0
0.03125 0.4375 0
0.0625 0.4375 0
0.09375 0.46875 0
0.09375 0.5 0
0.125 0.46875 0
0.125 0.5 0
0.09375 0.4375 0
0.125 0.4375 0
0.03125 0.40625 0
0.0625 0.40625 0
0.03125 0.375 0
0.0625 0.375 0
0.09375 0.40625 0
0.125 0.40625 0
0.09375 0.375 0
0.125 0.375 0
0.15625 0.46875 0
0.15625 0.5 0
0.1875 0.46875 0
0.1875 0.5 0
0.15625 0.4375 0
0.1875 0.4375 0
0.21875 0.46875 0
0.21875 0.5 0
0.25 0.46875 0
0.25 0.5 0
0.21875 0.4375 0
0.25 0.4375 0
0.15625 0.40625 0
0.1875 0.40625 0
0.15625 0.375 0
0.1875 0.375 0
0.21875 0.40625 0
0.25 0.40625 0
0.21875 0.375 0
0.25 0.375 0
0.03125 0.34375 0
0.0625 0.34375 0
0.03125 0.3125 0
0.0625 0.3125 0
0.09375 0.34375 0
0.125 0.34375 0
0.09375 0.3125 0
0.125 0.3125 0
0.03125 0.28125 0
0.0625 0.28125 0
0.03125 0.25 0
0.0625 0.25 0
0.09375 0.28125 0
0.125 0.28125 0
0.09375 0.25 0
0.125 0.25 0
0.15625 0.34375 0
0.1875 0.34375 0
0.15625 0.3125 0
0.1875 0.3125 0
0.21875 0.34375 0
0.25 0.34375 0
0.21875 0.3125 0
0.25 0.3125 0
0.15625 0.28125 0
0.1875 0.28125 0
0.15625 0.25 0
0.1875 0.25 0
0.21875 0.28125 0
0.25 0.28125 0
0.21875 0.25 0
0.25 0.25 0
0.28125 0.46875 0
0.28125 0.5 0
0.3125 0.46875 0
0.3125 0.5 0
0.28125 0.4375 0
0.3125 0.4375 0
0.34375 0.46875 0
0.34375 0.5 0
0.375 0.46875 0
0.375 0.5 0
0.34375 0.4375 0
0.375 0.4375 0
0.28125 0.40625 0
0.3125 0.40625 0
0.28125 0.375 0
0.3125 0.375 0
0.34375 0.40625 0
0.375 0.40625 0
0.34375 0.375 0
0.375 0.375 0
0.40625 0.46875 0
0.40625 0.5 0
0.4375 0.46875 0
0.4375 0.5 0
0.40625 0.4375 0
0.4375 0.4375 0
0.46875 0.46875 0
0.46875 0.5 0
0.5 0.46875 0
0.5 0.5 0
0.46875 0.4375 0
0.5 0.4375 0
0.40625 0.40625 0
0.4375 0.40625 0
0.40625 0.375 0
0.4375 0.375 0
0.46875 0.40625 0
0.5 0.40625 0
0.46875 0.375 0
0.5 0.375 0
0.28125 0.34375 0
0.3125 0.34375 0
0.28125 0.3125 0
0.3125 0.3125 0
0.34375 0.34375 0
0.375 0.34375 0
0.34375 0.3125 0
0.375 0.3125 0
0.28125 0.28125 0
0.3125 0.28125 0
0.28125 0.25 0
0.3125 0.25 0
0.34375 0.28125 0
0.375 0.28125 0
0.34375 0.25 0
0.375 0.25 0
0.40625 0.34375 0
0.4375 0.34375 0
0.40625 0.3125 0
0.4375 0.3125 0
0.46875 0.34375 0
0.5 0.34375 0
0.46875 0.3125 0
0.5 0.3125 0
0.40625 0.28125 0
0.4375 0.28125 0
0.40625 0.25 0
0.4375 0.25 0
0.46875 0.28125 0
0.5 0.28125 0
0.46875 0.25 0
0.5 0.25 0
0.03125 0.21875 0
0.0625 0.21875 0
0.03125 0.1875 0
0.0625 0.1875 0
0.09375 0.21875 0
0.125 0.21875 0
0.09375 0.1875 0
0.125 0.1875 0
0.03125 0.15625 0
0.0625 0.15625 0
0.03125 0.125 0
0.0625 0.125 0
0.09375 0.15625 0
0.125 0.15625 0
0.09375 0.125 0
0.125 0.125 0
0.15625 0.21875 0
0.1875 0.21875 0
0.15625 0.1875 0
0.1875 0.1875 0
0.21875 0.21875 0
0.25 0.21875 0
0.21875 0.1875 0
0.25 0.1875 0
0.15625 0.15625 0
0.1875 0.15625 0
0.15625 0.125 0
0.1875 0.125 0
0.21875 0.15625 0
0.25 0.15625 0
0.21875 0.125 0
0.25 0.125 0
0.03125 0.09375 0
0.0625 0.09375 0
0.03125 0.0625 0
0.0625 0.0625 0
0.09375 0.09375 0
0.125 0.09375 0
0.09375 0.0625 0
0.125 0.0625 0
0.03125 0.03125 0
0.0625 0.03125 0
0.03125 0 0
0.0625 0 0
0.09375 0.03125 0
0.125 0.03125 0
0.09375 0 0
0.125 0 0
0.15625 0.09375 0
0.1875 0.09375 0
0.15625 0.0625 0
0.1875 0.0625 0
0.21875 0.09375 0
0.25 0.09375 0
0.21875 0.0625 0
0.25 0.0625 0
0.15625 0.03125 0
0.1875 0.03125 0
0.15625 0 0
0.1875 0 0
0.21875 0.03125 0
0.25 0.03125 0
0.21875 0 0
0.25 0 0
0.28125 0.21875 0
0.3125 0.21875 0
0.28125 0.1875 0
0.3125 0.1875 0
0.34375 0.21875 0
0.375 0.21875 0
0.34375 0.1875 0
0.375 0.1875 0
0.28125 0.15625 0
0.3125 0.15625 0
0.28125 0.125 0
0.3125 0.125 0
0.34375 0.15625 0
0.375 0.15625 0
0.34375 0.125 0
0.375 0.125 0
0.40625 0.21875 0
0.4375 0.21875 0
0.40625 0.1875 0
0.4375 0.1875 0
0.46875 0.21875 0
0.5 0.21875 0
0.46875 0.1875 0
0.5 0.1875 0
0.40625 0.15625 0
0.4375 0.15625 0
0.40625 0.125 0
0.4375 0.125 0
0.46875 0.15625 0
0.5 0.15625 0
0.46875 0.125 0
0.5 0.125 0
0.28125 0.09375 0
0.3125 0.09375 0
0.28125 0.0625 0
0.3125 0.0625 0
0.34375 0.09375 0
0.375 0.09375 0
0.34375 0.0625 0
0.375 0.0625 0
0.28125 0.03125 0
0.3125 0.03125 0
0.28125 0 0
0.3125 0 0
0.34375 0.03125 0
0.375 0.03125 0
0.34375 0 0
0.375 0 0
0.40625 0.09375 0
0.4375 0.09375 0
0.40625 0.0625 0
0.4375 0.0625 0
0.46875 0.09375 0
0.5 0.09375 0
0.46875 0.0625 0
0.5 0.0625 0
0.40625 0.03125 0
0.4375 0.03125 0
0.40625 0 0
0.4375 0 0
0.46875 0.03125 0
0.5 0.03125 0
0.46875 0 0
0.5 0 0
-0.5 -0.03125 0
-0.46875 -0.03125 0
-0.4375 -0.03125 0
-0.5 -0.0625 0
-0.46875 -0.0625 0
-0.4375 -0.0625 0
-0.40625 -0.03125 0
-0.375 -0.03125 0
-0.40625 -0.0625 0
-0.375 -0.0625 0
-0.5 -0.09375 0
-0.46875 -0.09375 0
-0.4375 -0.09375 0
-0.5 -0.125 0
-0.46875 -0.125 0
-0.4375 -0.125 0
-0.40625 -0.09375 0
-0.375 -0.09375 0
-0.40625 -0.125 0
-0.375 -0.125 0
-0.34375 -0.03125 0
-0.3125 -0.03125 0
-0.34375 -0.0625 0
-0.3125 -0.0625 0
-0.28125 -0.03125 0
-0.25 -0.03125 0
-0.28125 -0.0625 0
-0.25 -0.0625 0
-0.34375 -0.09375 0
-0.3125 -0.09375 0
-0.34375 -0.125 0
-0.3125 -0.125 0
-0.28125 -0.09375 0
-0.25 -0.09375 0
-0.28125 -0.125 0
-0.25 -0.125 0
-0.5 -0.15625 0
-0.46875 -0.15625 0
-0.4375 -0.15625 0
-0.5 -0.1875 0
-0.46875 -0.1875 0
-0.4375 -0.1875 0
-0.40625 -0.15625 0
-0.375 -0.15625 0
[...]
POINT_DATA 1089
SCALARS T float
LOOKUP_TABLE default
0
0
0
0
0
0
0
0
0
0
0
0
0
0
0
0
0
0
0
0
0
0
0
0
0
0
0
0
0
0
0
0
0
0
0
0
0
0
0
0
0
0
0
0
0
0
0
0
0
0
0
0
0
0
0
0
0
0
0
0
0
0
0
0
0
0
0
0
0
0
0
0
0
0
0
0
0
0
0
0
0
0
0
0
0
0
0
0
0
0
0
0
0
0
0
0
0
0
0
0
0
0
0
0
0
0
0
0
0
0
0
0
0
0
0
0
0
0
0
0
0
0
0
0
0
0
0
0
0
0
0
0
0
0
0
0
0
0
0
0
0
0
0
0
0
0
0
0
0
0
0
0
0
0
0
0
0
0
0
0
0
0
0
0
0
0
0
0
0
0
0
0
0
0
0
0
0
0
0
0
0
0
0
0
0
0
0
0
0
0
0
0
0
0
0
0
0
0
0
0
0
0
0
0
0
0
0
0
0
0
0
0
0
0
0
0
0.0185043
0
0
0
0
0.00723443
0.222122
0.119039
0.565422
0
0
0
0
0
0
0
0
0
0
0
0
0
0
0
0
0
0
0
0
0
0
0
0
0
0
0
0
0
0
0
0
0
0.0470495
0.190698
0.469235
0.161863
0.248872
0.661854
0.748872
0.637082
0.922185
0.946383
1
0.999991
1
1
1
0.241589
0.143069
0.741589
0.640104
0.0355384
0
0.432117
0.158432
1
0.997035
1
1
0.896578
0.580702
1
0.92227
0
0
0
0
0
0
0
0
0
0
0
0
0
0
0
0
0
0
0
0
0
0
0
0
0
0
0
0
0
0
0
0
0
0
0
0
0
0
0
0
0
0
0
0
0
0
0
0
0
0
0
0
0
0.0143228
0
0.0624339
0
0.0148105
0.0865075
0.342709
0.0812811
0.10387
0.572672
0.602872
0.335961
0.813029
0.547564
0.98513
0.991391
0.999002
1
1
0
0
0
0
0
0
0
0
0
0
0
0
0
0
0
0
0
0
0
0
0
0
0
0
0
0
0
0
0
0
0
0
0
0
0
0
0
0
0
0
0.0375662
0.000167154
0.431923
0.146743
0
0
0.00122165
0
0.894356
0.464778
1
0.683469
0.069423
0
0.183469
0
0
0
0
0
0
0
0
0
0
0
0
0
0
0
0
0
0
0
0
0
0
0.0605817
0
0.0124707
0
0
0
0
0
0
0
0
0.549968
0.989387
0.342816
0.824359
1
1
0.994014
0.999993
0.0909585
0.358017
0
0.0230447
0.5928
0.618526
0.0987864
0.118533
0
0
0.00888897
0
0
0
0
0
0.183118
0.00195908
0.509903
0.0876325
0
0
0
0
0
0
0
0
0
0
0
0
0
0
0
0
0
0
0
0.00191799
1
0.683092
0.900097
0.469774
0.183092
0
0.0696701
0
0.442888
0.15195
0.0427911
0
0.00184574
0
0
0
0
0
0
0
0
0
0
0
0
0
0
0
0
0
0
0
0
0
0
0
0
0
0
0
0
0
0.014577
0.0161183
0
0
0.00345932
0
0
0
0
0
0
0
0
0
0
0
0
0
0
0
0
0
0
0
0
0
0
0
0
0
0
0
0
0
0
0
0
0
0
0
0
0
0
0
0
0.00265745
0.317806
0.817806
0.455764
0.953106
0
0.00486612
0
0.00220867
0.49832
0.993454
0.450989
0.948781
0
0
0
0
0
0
0
0
0
0
0
0
0
0
0
0
0
0
0
0
0
0
0
0
0.308076
0.808076
0.109994
0.548722
0
0
0
0
0.00434959
0.206199
0
0.0131215
1
1
1
1
1
1
1
1
1
1
1
1
1
1
1
1
1
1
1
1
1
1
1
1
1
1
1
1
1
1
1
1
1
1
0.938728
1
1
1
1
1
0.608326
0.905035
0.169598
0.435606
0.998558
1
0.623293
0.705348
1
1
1
1
1
0.999933
1
0.892322
1
0.988625
0.69363
0.58753
0.856816
0.512532
0.373276
0.120143
0
0
0
0
0
0
0
0
0
0
0
0
0
0
0
0
0
0
0
0
0
0
0
0
0
0
0
0
0
0
0
0
0
0
0
0
0
0
0
0
0
0
0
0
0
0
0
0
0
0
0
0
0
0
0
0
0
0
0
0
0
0
0
0
0
0
0
0
0
0
0
0
0
0.0305717
0
0
0.124735
0.205348
0
0
0
0
0
0
0
0
0
0
0.19363
0.0989042
0
0
0.0164597
0
0
0
0
0
0
0
0
0
0
0
0
0
0
0
0
0
0
0
0
0
0
0
0
0
0
0
0
0
0
0
0
0
0
0
0
0
0
0
0
0
0
0
0.76578
0.26578
0.902157
0.402157
0
0
0
0
0.939457
0.439457
0.883683
0.383683
0
0
0
0
0
0
0
0
0.0189749
0.204219
0.112859
0.546186
0
0
0
0
0.179448
0.679448
0.0901982
0.484191
0.729281
0.229348
0.455411
0.0630895
0
0
0
0
0.144358
1.76189e-05
0.00195168
0
0
0
0
0
0
0
0
0
0.00463422
0.148627
0
0
0
0
0
0
0
0
0
0
0.447904
0.455215
0.933327
0.939096
0.206517
0.0139617
0.547023
0.107927
1
1
0.854168
0.846212
0.672677
0.172677
0.468617
0.0825808
0
0
0
0
0
0
0
0
0
0
0
0
0
0
0
0
0.354168
0.346212
0
0
0.139905
0.00386821
0
0
0
0
0
0
0
0
0
0
0
0
0
0
0
0
0
0
0
0
0
0
0
0
0
0
0
0
0
0
0
0
0
0
0
0
0
0
0
0
0
0
0
0
0
0
0
0
0
0
0
0
0
0
0
0
0
0
0
0
0
0
0
0
0
0
0
0
0
0
0
0
0
0
0
0
0
0
0
0
0
0
0
0
0
0
0
0
0
0
0
0
0
0
0
0
0
0
0
0
0
0
0
0
0
0
0
0
0
0
0
0
0
0
0
0
0
0
0
0
0
0
0
0
0
0
0
0
0
0
0
0
0
0
0
0
0
0
0
0
0
0
0
0
0
0
0
0
0
0
0
0
0
0

SCALARS P float
LOOKUP_TABLE default
-0.0104452
-0.0104546
-0.0104211
-0.0104341
-0.0104645
-0.0104489
-0.0104727
-0.0104766
-0.010481
-0.0104751
-0.0104648
-0.010486
-0.010481
-0.0104865
-0.0104926
-0.0105021
-0.0104997
-0.0104983
-0.0105359
-0.0105245
-0.0105162
-0.0104987
-0.0105003
-0.0105113
-0.0105086
-0.0104965
-0.0104966
-0.010505
-0.01051
-0.0104985
-0.0105032
-0.0105106
-0.0105196
-0.0105116
-0.0105231
-0.0105056
-0.0105046
-0.0105023
-0.0105038
-0.0105075
-0.0105064
-0.0105037
-0.0105011
-0.0105046
-0.0105006
-0.0105669
-0.0105469
-0.0105323
-0.0105988
-0.0105677
-0.0105462
-0.0105228
-0.0105168
-0.0105324
-0.0105239
-0.0106208
-0.0105804
-0.0105542
-0.0106204
-0.010579
-0.0105528
-0.0105379
-0.0105288
-0.0105374
-0.0105299
-0.0105133
-0.0105106
-0.0105193
-0.010516
-0.0105077
-0.0105028
-0.0105131
-0.0105076
-0.0105247
-0.0105224
-0.0105287
-0.0105295
-0.010521
-0.0105156
-0.0105321
-0.0105281
-0.0105078
-0.0105201
-0.0104989
-0.0105098
-0.0105
-0.0104916
-0.0104861
-0.0104944
-0.0104712
-0.0104766
-0.0104804
-0.0104675
-0.0104958
-0.0104877
-0.0104946
-0.0104863
-0.0104775
-0.0104662
-0.0104767
-0.0104668
-0.0104549
-0.0104578
-0.0104377
-0.0104393
-0.0104532
-0.0104378
-0.0104181
-0.0104191
-0.0103956
-0.0103965
-0.0104195
-0.0103977
-0.0104539
-0.0104407
-0.0104568
-0.010447
-0.0104247
-0.0104047
-0.0104353
-0.0104205
-0.0104962
-0.0104874
-0.0105006
-0.0104906
-0.0104778
-0.0104691
-0.0104801
-0.010472
-0.0105084
-0.0104962
-0.0105215
-0.0105053
-0.0104831
-0.0104745
-0.0104868
-0.010475
-0.0104614
-0.0104559
-0.0104666
-0.0104669
-0.0104506
-0.0104438
-0.0104707
-0.0104776
-0.01047
-0.0104762
-0.0104679
-0.010478
-0.0104909
-0.0105167
-0.0105001
-0.010539
-0.0105997
-0.0105649
-0.0105425
-0.0105662
-0.0105403
-0.0105234
-0.0105305
-0.0105269
-0.0105163
-0.0105184
-0.010536
-0.0105128
-0.0104985
-0.0105051
-0.0104809
-0.0104663
-0.0104957
-0.0105042
-0.0104656
-0.0104795
-0.0105314
-0.0105381
-0.0105313
-0.0105475
-0.0105487
-0.0105477
-0.0105715
-0.0105786
-0.0105289
-0.0105595
-0.0105171
-0.010569
-0.0106084
-0.0106354
-0.0106595
-0.0107345
-0.0104729
-0.0104432
-0.0104251
-0.0104356
-0.0103969
-0.0103707
-0.010424
-0.010443
-0.0103633
-0.0103804
-0.0103894
-0.01034
-0.0103024
-0.0103253
-0.0102687
-0.0102187
-0.0102818
-0.0102855
-0.0101761
-0.0101457
-0.0104977
-0.0105836
-0.0104461
-0.0105773
-0.01074
-0.0109126
-0.0108361
-0.0100506
-0.0103425
-0.0105007
-0.0101507
-0.0102456
-0.0103949
0.00209479
-0.00362172
0.0224943
-0.0105433
-0.0105203
-0.0105836
-0.0105514
-0.0104921
-0.0104737
-0.0105061
-0.0104743
-0.0106583
-0.0106079
-0.0108121
-0.0107371
-0.010539
-0.0104878
-0.0106198
-0.0105333
-0.010458
-0.0104682
-0.0104407
-0.0104481
-0.0104931
-0.0105365
-0.0104718
-0.0105112
-0.0104205
-0.0104245
-0.0104152
-0.0104223
-0.0104537
-0.0104971
-0.0104755
-0.0105365
-0.0110745
-0.00797813
0.000342025
0.0173727
-0.000724602
0.00455245
0.0290733
0.0342686
0.0271214
0.0443334
0.045316
0.0487225
0.0488827
0.0488922
0.0488475
0.0489438
0.0041539
-0.001838
0.0337177
0.0274829
-0.00843856
-0.0106836
0.0148196
-0.00162846
0.0487701
0.0484576
0.0488935
0.0488
0.0423039
0.0231373
0.0487092
0.043766
-0.0103674
-0.0103695
-0.0103351
-0.0103399
-0.0103689
-0.0103337
-0.0102962
-0.0103068
-0.0102551
-0.0102741
-0.0102874
-0.0102335
-0.0103761
-0.0103381
-0.0103963
-0.0103608
-0.0102827
-0.01021
-0.0103
-0.0102058
-0.0102133
-0.0102434
-0.010179
-0.0102207
-0.0101711
-0.0101104
-0.0101707
-0.0102153
-0.0102022
-0.0102314
-0.0100912
-0.0101513
-0.0101154
-0.0100123
-0.0100533
-0.00983699
-0.00997267
-0.0100964
-0.00972352
-0.00998325
-0.0104296
-0.0104045
-0.0104834
-0.0104839
-0.0103456
-0.0102355
-0.0104564
-0.0103815
-0.0105556
-0.0106131
-0.0106001
-0.0106985
-0.0107003
-0.00892042
-0.0108783
-0.0029803
-0.00999517
-0.00803418
0.000113309
0.0301915
-0.000592422
0.00138258
0.0566154
0.0599738
0.0296837
0.0858583
0.0552253
0.106736
0.106402
0.107796
0.108048
0.10829
-0.0102608
-0.0102658
-0.0103086
-0.0102985
-0.0102532
-0.0103257
-0.0103504
-0.0103287
-0.0103855
-0.0103557
-0.0103848
-0.0104281
-0.0102656
-0.0103517
-0.0102928
-0.010412
-0.0104285
-0.0104782
-0.0105257
-0.0105698
-0.010407
-0.0103755
-0.0104239
-0.0103924
-0.010448
-0.0104623
-0.0104356
-0.0104068
-0.0104452
-0.0104193
-0.0104686
-0.0104727
-0.0104945
-0.0105049
-0.0105693
-0.0105646
-0.0105044
-0.0105021
-0.0105495
-0.0105359
-0.00633587
-0.01049
0.0396954
0.00607936
-0.010646
-0.0106694
-0.010783
-0.0108343
0.0953657
0.043541
0.108792
0.0700895
-0.00342342
-0.0111207
0.00989844
-0.0111885
-0.0106458
-0.0106221
-0.0107617
-0.0106971
-0.0105918
-0.0105669
-0.010641
-0.0105988
-0.010909
-0.010769
-0.0109341
-0.0107763
-0.0106806
-0.0106208
-0.010683
-0.0106204
-0.0105996
-0.0106934
-0.0105506
-0.0105894
-0.0108688
-0.00303134
-0.0106402
-0.00887059
-0.0105117
-0.0104964
-0.0105359
-0.010493
-0.0104345
-0.0103325
-0.010413
-0.0103337
0.0557522
0.107387
0.0313126
0.0882379
0.108111
0.108106
0.107241
0.107747
0.00116245
0.0331127
-0.010105
-0.00704996
0.0603654
0.0630841
0.00208967
0.0042089
-0.0106484
-0.0105386
-0.0103846
-0.0106496
-0.0104041
-0.010298
-0.0104255
-0.0102799
-0.000468652
-0.0106694
0.0187267
-0.00597538
-0.0104113
-0.010208
-0.0103921
-0.0101096
-0.0101452
-0.010144
-0.0101443
-0.0101497
-0.010139
-0.0102519
-0.010142
-0.0103545
-0.0100366
-0.0100386
-0.00987891
-0.00986225
-0.0100005
-0.0103954
-0.00973891
-0.0100085
0.108286
0.070036
0.095982
0.0448273
0.0103775
-0.0108826
-0.00256222
-0.010634
0.0420682
0.00750445
-0.00512483
-0.0104157
-0.0103111
-0.0105843
-0.0105426
-0.0105728
-0.0107895
-0.0107093
-0.0106522
-0.0106294
-0.010648
-0.0105997
-0.0105986
-0.0105662
-0.0106093
-0.0105898
-0.0105889
-0.0105623
-0.0105649
-0.010536
-0.0105362
-0.0105051
-0.0104822
-0.0105749
-0.0106954
-0.0107881
-0.010633
-0.0106115
-0.0107639
-0.0106754
-0.0110538
-0.0111569
-0.00919469
-0.00919631
-0.0109585
-0.0107561
-0.010719
-0.0108419
-0.0106002
-0.0105507
-0.0106243
-0.0105423
-0.0105132
-0.0104729
-0.0104889
-0.0104356
-0.0106485
-0.0105286
-0.010641
-0.0104853
-0.0104568
-0.0103894
-0.0103991
-0.0103253
-0.010248
-0.0101911
-0.0101313
-0.0101634
-0.0101166
-0.0100571
-0.0100631
-0.00998747
-0.00997327
-0.00986393
-0.0100724
-0.0100542
-0.0100086
-0.0100397
-0.0100379
-0.0100081
-0.00992465
-0.00980323
-0.00994175
-0.00984258
-0.0099105
-0.00987825
-0.00971464
-0.00946682
0.00819359
0.0371645
0.0162916
0.0449879
-0.00961528
-0.00922002
-0.009683
-0.00942824
0.0188018
0.0473146
0.0160615
0.044746
-0.0100543
-0.0100591
-0.0100474
-0.0100811
-0.0101006
-0.0101124
-0.0100143
-0.00996745
-0.0101203
-0.0101388
-0.0101265
-0.0101537
-0.0101825
-0.0101734
-0.0102053
-0.0102431
-0.0102199
-0.0102823
-0.0102936
-0.0103691
-0.00989992
-0.00987271
-0.0101886
-0.0103466
0.00769031
0.0367102
-0.00425444
0.0216517
-0.0104012
-0.0106445
-0.0104931
-0.0106998
-0.0108178
0.00107478
-0.0110489
-0.010637
0.048314
0.0486605
0.0483235
0.0486819
0.0488683
0.04899
0.0489037
0.0490248
0.0483251
0.048701
0.0483411
0.048723
0.0489288
0.0490437
0.0489494
0.0490487
0.0489866
0.0489359
0.0490355
0.048995
0.0488561
0.0488085
0.0488983
0.0488085
0.0490452
0.0489861
0.049018
0.0489088
0.0488488
0.0486799
0.0486999
0.048431
0.0484015
0.0487596
0.0450958
0.0488694
0.0489643
0.0490423
0.0489822
0.0490195
0.0256948
0.0436612
-0.000973735
0.0156477
0.0489861
0.0489646
0.0272084
0.0321288
0.048965
0.0487965
0.0488789
0.0486615
0.0485223
0.0481615
0.0483593
0.0414979
0.0487663
0.0479645
0.031241
0.0246243
0.0399581
0.0191863
0.0115028
-0.0036809
-0.010219
-0.0102524
-0.0102936
-0.0102586
-0.0102914
-0.0103319
-0.0103476
-0.0104214
-0.0103833
-0.0104489
-0.0102938
-0.0103246
-0.0103622
-0.0103234
-0.0103515
-0.010385
-0.0104084
-0.0104644
-0.0104246
-0.0104704
-0.0105284
-0.0106764
-0.0105351
-0.0106404
-0.0108923
-0.0111445
-0.0107743
-0.0109013
-0.0105327
-0.0106087
-0.0105226
-0.0105765
-0.0106936
-0.0107585
-0.0106306
-0.0106659
-0.0103498
-0.0103748
-0.0104037
-0.0103737
-0.0103953
-0.0104195
-0.0104368
-0.0104736
-0.0104464
-0.0104752
-0.0103968
-0.0104148
-0.0104343
-0.0104193
-0.0104341
-0.0104489
-0.0104555
-0.0104775
-0.0104648
-0.010481
-0.0105133
-0.010552
-0.0105049
-0.0105324
-0.0105874
-0.0106078
-0.0105556
-0.0105675
-0.0104995
-0.0105189
-0.0104966
-0.01051
-0.0105341
-0.0105409
-0.0105196
-0.0105231
-0.0113605
-0.00906172
-0.010999
-0.0109284
-0.00270713
0.00232607
-0.0107741
-0.0106339
-0.0107955
-0.0107429
-0.0106803
-0.0106452
-0.010651
-0.0105642
-0.0105855
-0.0105283
0.00161377
-0.00433371
-0.0105184
-0.0105267
-0.00961116
-0.0106477
-0.0105393
-0.0104933
-0.010486
-0.0104723
-0.0104781
-0.0104587
-0.0104666
-0.0104398
-0.0104425
-0.0104179
-0.010612
-0.0105875
-0.0105675
-0.0105504
-0.0105481
-0.0105082
-0.0105232
-0.0104943
-0.010539
-0.0105262
-0.0105201
-0.0105098
-0.0105063
-0.0104842
-0.0104944
-0.0104766
-0.0104714
-0.0104498
-0.0104667
-0.0104459
-0.0104305
-0.010408
-0.0104255
-0.0104029
-0.0104618
-0.0104418
-0.0104578
-0.0104393
-0.0104212
-0.0103988
-0.0104191
-0.0103965
0.0340154
0.00440967
0.0421034
0.0126796
-0.0102393
-0.00993313
-0.00993115
-0.00959953
0.0441039
0.0148751
0.0406008
0.0115473
-0.00984742
-0.00977646
-0.00988069
-0.0100245
-0.00968588
-0.00957133
-0.00911389
-0.00844272
-0.00578567
0.0271152
0.0117443
0.0883887
-0.00971684
-0.00955088
-0.01038
-0.0107515
0.0236864
0.113659
0.00675835
0.079739
0.0315301
0.00260447
0.0156458
-0.0067888
-0.0099163
-0.00998131
-0.0100611
-0.0101064
-0.00232697
-0.0102945
-0.0104774
-0.0103592
-0.0101837
-0.0101756
-0.0102481
-0.0102204
-0.0101268
-0.0101608
-0.0102448
-0.0103234
-0.00966514
0.0171165
-0.0107033
-0.0105681
-0.0102323
-0.0102574
-0.0102375
-0.0102558
-0.0104358
-0.0102963
-0.0103446
-0.0102707
0.0702549
0.0708224
0.158302
0.159532
0.0254192
-0.0085448
0.0868322
0.0078374
0.170866
0.171112
0.146786
0.144593
0.110304
0.0199436
0.0749025
0.00478178
-0.0104951
-0.0103845
-0.0102999
-0.010257
-0.0103096
-0.010248
-0.0101997
-0.0101634
-0.00981809
-0.00999918
-0.00967997
-0.00990504
-0.0100488
-0.0100724
-0.00999495
-0.0100397
0.0553372
0.0536962
-0.0101055
-0.0100934
0.0159465
-0.00908271
-0.00990167
-0.00984727
-0.0101001
-0.010167
-0.0101637
-0.0101663
-0.0100438
-0.0100062
-0.0100952
-0.0100814
-0.00991
-0.00997959
-0.00993722
-0.00999519
-0.0100246
-0.0100543
-0.0100461
-0.0100811
-0.0100374
-0.0100621
-0.0100991
-0.0101166
-0.0100961
-0.0101265
-0.0101444
-0.0101734
-0.0104822
-0.0103496
-0.0104113
-0.0103422
-0.0102776
-0.010254
-0.0102958
-0.0102744
-0.0103912
-0.0103462
-0.0103823
-0.0103484
-0.0103104
-0.0102887
-0.0103183
-0.0102966
-0.0102534
-0.0102595
-0.0102647
-0.0102635
-0.0102887
-0.0102353
-0.0102708
-0.0102416
-0.0102742
-0.0102675
-0.01028
-0.0102702
-0.0102642
-0.0102471
-0.0102636
-0.0102541
-0.0103787
-0.0103496
-0.0103757
-0.0103481
-0.0103217
-0.0102991
-0.0103203
-0.010296
-0.0103724
-0.0103446
-0.0103695
-0.0103399
-0.0103151
-0.0102878
-0.0103068
-0.0102741
-0.0102807
-0.0102687
-0.0102755
-0.0102617
-0.0102616
-0.0102576
-0.0102553
-0.0102564
-0.0102635
-0.0102466
-0.0102434
-0.0102207
-0.0102411
-0.0102484
-0.0102153
-0.0102314
-0.0101863
-0.0101907
-0.0102157
-0.0102117
-0.0101535
-0.0101444
-0.0101934
-0.0101897
-0.010235
-0.0102327
-0.0102496
-0.0102504
-0.0102264
-0.0102273
-0.0102516
-0.010257
-0.0101548
-0.0101682
-0.0101985
-0.0102112
-0.0101916
-0.010219
-0.0102324
-0.0102586
-0.0102366
-0.0102495
-0.0102678
-0.0102817
-0.0102692
-0.0102938
-0.0103005
-0.0103234
-0.0102597
-0.0102656
-0.0102658
-0.0102781
-0.0102732
-0.0102831
-0.010292
-0.0103067
-0.0102678
-0.0102887
-0.0102658
-0.0102985
-0.0103097
-0.0103301
-0.0103287
-0.0103557
-0.010296
-0.0103108
-0.0103219
-0.0103376
-0.0103289
-0.0103498
-0.0103549
-0.0103737
-0.0103478
-0.0103643
-0.0103755
-0.0103924
-0.0103805
-0.0103968
-0.0104068
-0.0104211

SCALARS U float
LOOKUP_TABLE default
0.0214746
0.0219158
0.0211655
0.0216498
0.0223585
0.0221546
0.021798
0.0221812
0.0225641
0.0227885
0.0226564
0.0231836
0.0231346
0.0229316
0.0232603
0.0221069
0.0224378
0.0227715
0.0223667
0.0226652
0.0229693
0.0230921
0.0233754
0.0232643
0.0235265
0.0235125
0.0235573
0.0237352
0.0238805
0.0235194
0.0236713
0.0238045
0.0240469
0.0236719
0.0239925
0.0236743
0.0234888
0.0235906
0.0237004
0.023725
0.0238211
0.0236642
0.0234449
0.0237717
0.0235366
0.0225452
0.0228377
0.0231364
0.022604
0.0229311
0.0232512
0.0234296
0.0236966
0.0235648
0.02386
0.0225841
0.0229527
0.0233002
0.0225563
0.0229267
0.023277
0.0236429
0.0239812
0.0236371
0.0240198
0.0239067
0.0240192
0.0241088
0.0242689
0.0239849
0.0237557
0.0242822
0.0240875
0.0242916
0.0245316
0.0244074
0.0247613
0.0246319
0.0245141
0.0250019
0.0250304
0.0232984
0.0236567
0.0226684
0.0230047
0.0230859
0.0224588
0.0218097
0.0220638
0.0207937
0.0209258
0.0216346
0.0206735
0.0230163
0.0223739
0.023086
0.0224124
0.0215437
0.0205817
0.0215416
0.0205311
0.019724
0.0197278
0.0187118
0.0186172
0.0196611
0.0186895
0.017852
0.0177133
0.0172001
0.0170757
0.0178415
0.0171707
0.0195678
0.0185892
0.0194667
0.018443
0.017726
0.0170307
0.0175458
0.0168284
0.023291
0.0225753
0.0236247
0.0228618
0.0216342
0.0205318
0.0218235
0.0205845
0.0240841
0.0232788
0.0246937
0.0238672
0.0221174
0.020685
0.0225514
0.0208351
0.0193722
0.0182714
0.0192816
0.0180707
0.0173302
0.0166081
0.0170831
0.0163951
0.0191719
0.0178017
0.018995
0.0173678
0.0167585
0.0161534
0.0162249
0.0157192
0.0225275
0.0228418
0.0231552
0.0224997
0.022682
0.0229062
0.023508
0.0239259
0.0232163
0.023654
0.0223557
0.0223763
0.022481
0.0219768
0.0218517
0.0218332
0.0227224
0.0231743
0.0219955
0.0224714
0.0244025
0.0249159
0.0242377
0.0249948
0.0253859
0.0256957
0.0258767
0.0267459
0.0239125
0.0250819
0.023447
0.0252643
0.0267075
0.0285753
0.0280243
0.031284
0.0213429
0.0210993
0.0209615
0.0204797
0.0201341
0.0198666
0.0210344
0.021532
0.0198016
0.0202135
0.0195035
0.0190407
0.0186029
0.0185437
0.0179149
0.0172363
0.0182933
0.0183614
0.016523
0.0158521
0.0227801
0.0253315
0.0215175
0.0243482
0.0292136
0.0332813
0.0284013
0.0310425
0.0191554
0.0211431
0.0152732
0.0148237
0.0235569
0.0225676
0.0135186
0.00925267
0.0255803
0.0247834
0.0270844
0.0263702
0.0232601
0.0210826
0.0245028
0.0215283
0.0296377
0.0289593
0.0330323
0.0318268
0.0264923
0.0222386
0.0283072
0.0227057
0.0186776
0.0165908
0.0181318
0.0152145
0.0152356
0.0148052
0.0134199
0.0130084
0.0172794
0.0130488
0.0162958
0.0107201
0.0104901
0.0100397
0.00707222
0.00631134
0.0346068
0.0316713
0.0298644
0.0254141
0.0269401
0.0217329
0.021245
0.019368
0.0180491
0.0145482
0.00491317
0.00535813
0.0141578
0.0169759
0.00960053
0.0157839
0.0162502
0.0109073
0.0183043
0.0161951
0.00634742
0.00436928
0.0124333
0.00864502
0.0210953
0.0237895
0.0227137
0.0287579
0.0234061
0.0196139
0.0324323
0.0315783
0.0167774
0.0167071
0.016564
0.0165639
0.0167085
0.0164453
0.0165408
0.0165978
0.0166623
0.0167498
0.0163816
0.0164784
0.0165366
0.0162326
0.0163202
0.0159906
0.0161243
0.0161728
0.0158219
0.0157272
0.01692
0.0169907
0.0172873
0.0172926
0.0167633
0.0172165
0.0177333
0.0176275
0.0182911
0.0180151
0.0178219
0.0186565
0.0164566
0.016967
0.0157928
0.0162064
0.0178139
0.0191637
0.0175568
0.0200143
0.0161207
0.0157987
0.0160094
0.0158349
0.0155544
0.0151595
0.0156995
0.0152736
0.0159935
0.0162199
0.0158537
0.0165865
0.0166541
0.0171626
0.0177994
0.0196678
0.0146976
0.0150632
0.0148322
0.015596
0.0171857
0.0205358
0.0171487
0.018391
0.0180538
0.0192323
0.0217959
0.0225338
0.0189504
0.0169132
0.0210427
0.0182185
0.0187871
0.0183831
0.0191584
0.0187103
0.0193395
0.0197218
0.0195215
0.0190509
0.019884
0.0194139
0.0200775
0.0204199
0.0201317
0.0204193
0.021538
0.0214583
0.0206935
0.0209874
0.0213422
0.0214757
0.02025
0.0198043
0.0206376
0.0202264
0.0207382
0.0210739
0.0210471
0.0206784
0.0214746
0.0211429
0.0214273
0.021798
0.0212314
0.0215014
0.0216199
0.0218365
0.0217923
0.0221069
0.0220861
0.0223667
0.0224513
0.0221293
0.0194167
0.0200264
0.0217002
0.021737
0.0205105
0.0210682
0.0159605
0.0170763
0.0162542
0.0165674
0.0187247
0.0200508
0.0181442
0.0196678
0.0218225
0.0220229
0.0214902
0.0218926
0.0222674
0.0225452
0.0222592
0.022604
0.0209749
0.0216368
0.0207696
0.0215353
0.0221591
0.0225841
0.0221131
0.0225563
0.0152159
0.016337
0.013685
0.0149996
0.0180525
0.0207156
0.0165936
0.018482
0.0111843
0.0129639
0.00805927
0.0109096
0.0145487
0.0154486
0.0134076
0.0148509
0.0232231
0.023451
0.0201135
0.0209448
0.0217552
0.0194413
0.0210033
0.0201973
0.0160873
0.0174949
0.0159299
0.0173322
0.0193739
0.020754
0.019308
0.0216423
0.00574159
0.00929959
0.00751696
0.00982288
0.0128936
0.0152601
0.0133182