# vtk DataFile Version 2.0
Gerris simulation version 1.3.2 (131206-155120)
ASCII
DATASET UNSTRUCTURED_GRID

POINTS 1089 float
-0.5 0.46875 0
-0.46875 0.46875 0
-0.5 0.5 0
-0.46875 0.5 0
-0.4375 0.46875 0
-0.4375 0.5 0
-0.5 0.4375 0
-0.46875 0.4375 0
-0.4375 0.4375 0
-0.40625 0.46875 0
-0.40625 0.5 0
-0.375 0.46875 0
-0.375 0.5 0
-0.40625 0.4375 0
-0.375 0.4375 0
-0.5 0.40625 0
-0.46875 0.40625 0
-0.4375 0.40625 0
-0.5 0.375 0
-0.46875 0.375 0
-0.4375 0.375 0
-0.40625 0.40625 0
-0.375 0.40625 0
-0.40625 0.375 0
-0.375 0.375 0
-0.34375 0.46875 0
-0.34375 0.5 0
-0.3125 0.46875 0
-0.3125 0.5 0
-0.34375 0.4375 0
-0.3125 0.4375 0
-0.28125 0.46875 0
-0.28125 0.5 0
-0.25 0.46875 0
-0.25 0.5 0
-0.28125 0.4375 0
-0.25 0.4375 0
-0.34375 0.40625 0
-0.3125 0.40625 0
-0.34375 0.375 0
-0.3125 0.375 0
-0.28125 0.40625 0
-0.25 0.40625 0
-0.28125 0.375 0
-0.25 0.375 0
-0.5 0.34375 0
-0.46875 0.34375 0
-0.4375 0.34375 0
-0.5 0.3125 0
-0.46875 0.3125 0
-0.4375 0.3125 0
-0.40625 0.34375 0
-0.375 0.34375 0
-0.40625 0.3125 0
-0.375 0.3125 0
-0.5 0.28125 0
-0.46875 0.28125 0
-0.4375 0.28125 0
-0.5 0.25 0
-0.46875 0.25 0
-0.4375 0.25 0
-0.40625 0.28125 0
-0.375 0.28125 0
-0.40625 0.25 0
-0.375 0.25 0
-0.34375 0.34375 0
-0.3125 0.34375 0
-0.34375 0.3125 0
-0.3125 0.3125 0
-0.28125 0.34375 0
-0.25 0.34375 0
-0.28125 0.3125 0
-0.25 0.3125 0
-0.34375 0.28125 0
-0.3125 0.28125 0
-0.34375 0.25 0
-0.3125 0.25 0
-0.28125 0.28125 0
-0.25 0.28125 0
-0.28125 0.25 0
-0.25 0.25 0
-0.21875 0.46875 0
-0.21875 0.5 0
-0.1875 0.46875 0
-0.1875 0.5 0
-0.21875 0.4375 0
-0.1875 0.4375 0
-0.15625 0.46875 0
-0.15625 0.5 0
-0.125 0.46875 0
-0.125 0.5 0
-0.15625 0.4375 0
-0.125 0.4375 0
-0.21875 0.40625 0
-0.1875 0.40625 0
-0.21875 0.375 0
-0.1875 0.375 0
-0.15625 0.40625 0
-0.125 0.40625 0
-0.15625 0.375 0
-0.125 0.375 0
-0.09375 0.46875 0
-0.09375 0.5 0
-0.0625 0.46875 0
-0.0625 0.5 0
-0.09375 0.4375 0
-0.0625 0.4375 0
-0.03125 0.46875 0
-0.03125 0.5 0
0 0.46875 0
0 0.5 0
-0.03125 0.4375 0
0 0.4375 0
-0.09375 0.40625 0
-0.0625 0.40625 0
-0.09375 0.375 0
-0.0625 0.375 0
-0.03125 0.40625 0
0 0.40625 0
-0.03125 0.375 0
0 0.375 0
-0.21875 0.34375 0
-0.1875 0.34375 0
-0.21875 0.3125 0
-0.1875 0.3125 0
-0.15625 0.34375 0
-0.125 0.34375 0
-0.15625 0.3125 0
-0.125 0.3125 0
-0.21875 0.28125 0
-0.1875 0.28125 0
-0.21875 0.25 0
-0.1875 0.25 0
-0.15625 0.28125 0
-0.125 0.28125 0
-0.15625 0.25 0
-0.125 0.25 0
-0.09375 0.34375 0
-0.0625 0.34375 0
-0.09375 0.3125 0
-0.0625 0.3125 0
-0.03125 0.34375 0
0 0.34375 0
-0.03125 0.3125 0
0 0.3125 0
-0.09375 0.28125 0
-0.0625 0.28125 0
-0.09375 0.25 0
-0.0625 0.25 0
-0.03125 0.28125 0
0 0.28125 0
-0.03125 0.25 0
0 0.25 0
-0.5 0.21875 0
-0.46875 0.21875 0
-0.4375 0.21875 0
-0.5 0.1875 0
-0.46875 0.1875 0
-0.4375 0.1875 0
-0.40625 0.21875 0
-0.375 0.21875 0
-0.40625 0.1875 0
-0.375 0.1875 0
-0.5 0.15625 0
-0.46875 0.15625 0
-0.4375 0.15625 0
-0.5 0.125 0
-0.46875 0.125 0
-0.4375 0.125 0
-0.40625 0.15625 0
-0.375 0.15625 0
-0.40625 0.125 0
-0.375 0.125 0
-0.34375 0.21875 0
-0.3125 0.21875 0
-0.34375 0.1875 0
-0.3125 0.1875 0
-0.28125 0.21875 0
-0.25 0.21875 0
-0.28125 0.1875 0
-0.25 0.1875 0
-0.34375 0.15625 0
-0.3125 0.15625 0
-0.34375 0.125 0
-0.3125 0.125 0
-0.28125 0.15625 0
-0.25 0.15625 0
-0.28125 0.125 0
-0.25 0.125 0
-0.5 0.09375 0
-0.46875 0.09375 0
-0.4375 0.09375 0
-0.5 0.0625 0
-0.46875 0.0625 0
-0.4375 0.0625 0
-0.40625 0.09375 0
-0.375 0.09375 0
-0.40625 0.0625 0
-0.375 0.0625 0
-0.5 0.03125 0
-0.46875 0.03125 0
-0.4375 0.03125 0
-0.5 0 0
-0.46875 0 0
-0.4375 0 0
-0.40625 0.03125 0
-0.375 0.03125 0
-0.40625 0 0
-0.375 0 0
-0.34375 0.09375 0
-0.3125 0.09375 0
-0.34375 0.0625 0
-0.3125 0.0625 0
-0.28125 0.09375 0
-0.25 0.09375 0
-0.28125 0.0625 0
-0.25 0.0625 0
-0.34375 0.03125 0
-0.3125 0.03125 0
-0.34375 0 0
-0.3125 0 0
-0.28125 0.03125 0
-0.25 0.03125 0
-0.28125 0 0
-0.25 0 0
-0.21875 0.21875 0
-0.1875 0.21875 0
-0.21875 0.1875 0
-0.1875 0.1875 0
-0.15625 0.21875 0
-0.125 0.21875 0
-0.15625 0.1875 0
-0.125 0.1875 0
-0.21875 0.15625 0
-0.1875 0.15625 0
-0.21875 0.125 0
-0.1875 0.125 0
-0.15625 0.15625 0
-0.125 0.15625 0
-0.15625 0.125 0
-0.125 0.125 0
-0.09375 0.21875 0
-0.0625 0.21875 0
-0.09375 0.1875 0
-0.0625 0.1875 0
-0.03125 0.21875 0
0 0.21875 0
-0.03125 0.1875 0
0 0.1875 0
-0.09375 0.15625 0
-0.0625 0.15625 0
-0.09375 0.125 0
-0.0625 0.125 0
-0.03125 0.15625 0
0 0.15625 0
-0.03125 0.125 0
0 0.125 0
-0.21875 0.09375 0
-0.1875 0.09375 0
-0.21875 0.0625 0
-0.1875 0.0625 0
-0.15625 0.09375 0
-0.125 0.09375 0
-0.15625 0.0625 0
-0.125 0.0625 0
-0.21875 0.03125 0
-0.1875 0.03125 0
-0.21875 0 0
-0.1875 0 0
-0.15625 0.03125 0
-0.125 0.03125 0
-0.15625 0 0
-0.125 0 0
-0.09375 0.09375 0
-0.0625 0.09375 0
-0.09375 0.0625 0
-0.0625 0.0625 0
-0.03125 0.09375 0
0 0.09375 0
-0.03125 0.0625 0
0 0.0625 0
-0.09375 0.03125 0
-0.0625 0.03125 0
-0.09375 0 0
-0.0625 0 0
-0.03125 0.03125 0
0 0.03125 0
-0.03125 0 0
0 0 0
0.03125 0.46875 0
0.03125 0.5 0
0.0625 0.46875 0
0.0625 0.5 0
0.03125 0.4375 0
0.0625 0.4375 0
0.09375 0.46875 0
0.09375 0.5 0
0.125 0.46875 0
0.125 0.5 0
0.09375 0.4375 0
0.125 0.4375 0
0.03125 0.40625 0
0.0625 0.40625 0
0.03125 0.375 0
0.0625 0.375 0
0.09375 0.40625 0
0.125 0.40625 0
0.09375 0.375 0
0.125 0.375 0
0.15625 0.46875 0
0.15625 0.5 0
0.1875 0.46875 0
0.1875 0.5 0
0.15625 0.4375 0
0.1875 0.4375 0
0.21875 0.46875 0
0.21875 0.5 0
0.25 0.46875 0
0.25 0.5 0
0.21875 0.4375 0
0.25 0.4375 0
0.15625 0.40625 0
0.1875 0.40625 0
0.15625 0.375 0
0.1875 0.375 0
0.21875 0.40625 0
0.25 0.40625 0
0.21875 0.375 0
0.25 0.375 0
0.03125 0.34375 0
0.0625 0.34375 0
0.03125 0.3125 0
0.0625 0.3125 0
0.09375 0.34375 0
0.125 0.34375 0
0.09375 0.3125 0
0.125 0.3125 0
0.03125 0.28125 0
0.0625 0.28125 0
0.03125 0.25 0
0.0625 0.25 0
0.09375 0.28125 0
0.125 0.28125 0
0.09375 0.25 0
0.125 0.25 0
0.15625 0.34375 0
0.1875 0.34375 0
0.15625 0.3125 0
0.1875 0.3125 0
0.21875 0.34375 0
0.25 0.34375 0
0.21875 0.3125 0
0.25 0.3125 0
0.15625 0.28125 0
0.1875 0.28125 0
0.15625 0.25 0
0.1875 0.25 0
0.21875 0.28125 0
0.25 0.28125 0
0.21875 0.25 0
0.25 0.25 0
0.28125 0.46875 0
0.28125 0.5 0
0.3125 0.46875 0
0.3125 0.5 0
0.28125 0.4375 0
0.3125 0.4375 0
0.34375 0.46875 0
0.34375 0.5 0
0.375 0.46875 0
0.375 0.5 0
0.34375 0.4375 0
0.375 0.4375 0
0.28125 0.40625 0
0.3125 0.40625 0
0.28125 0.375 0
0.3125 0.375 0
0.34375 0.40625 0
0.375 0.40625 0
0.34375 0.375 0
0.375 0.375 0
0.40625 0.46875 0
0.40625 0.5 0
0.4375 0.46875 0
0.4375 0.5 0
0.40625 0.4375 0
0.4375 0.4375 0
0.46875 0.46875 0
0.46875 0.5 0
0.5 0.46875 0
0.5 0.5 0
0.46875 0.4375 0
0.5 0.4375 0
0.40625 0.40625 0
0.4375 0.40625 0
0.40625 0.375 0
0.4375 0.375 0
0.46875 0.40625 0
0.5 0.40625 0
0.46875 0.375 0
0.5 0.375 0
0.28125 0.34375 0
0.3125 0.34375 0
0.28125 0.3125 0
0.3125 0.3125 0
0.34375 0.34375 0
0.375 0.34375 0
0.34375 0.3125 0
0.375 0.3125 0
0.28125 0.28125 0
0.3125 0.28125 0
0.28125 0.25 0
0.3125 0.25 0
0.34375 0.28125 0
0.375 0.28125 0
0.34375 0.25 0
0.375 0.25 0
0.40625 0.34375 0
0.4375 0.34375 0
0.40625 0.3125 0
0.4375 0.3125 0
0.46875 0.34375 0
0.5 0.34375 0
0.46875 0.3125 0
0.5 0.3125 0
0.40625 0.28125 0
0.4375 0.28125 0
0.40625 0.25 0
0.4375 0.25 0
0.46875 0.28125 0
0.5 0.28125 0
0.46875 0.25 0
0.5 0.25 0
0.03125 0.21875 0
0.0625 0.21875 0
0.03125 0.1875 0
0.0625 0.1875 0
0.09375 0.21875 0
0.125 0.21875 0
0.09375 0.1875 0
0.125 0.1875 0
0.03125 0.15625 0
0.0625 0.15625 0
0.03125 0.125 0
0.0625 0.125 0
0.09375 0.15625 0
0.125 0.15625 0
0.09375 0.125 0
0.125 0.125 0
0.15625 0.21875 0
0.1875 0.21875 0
0.15625 0.1875 0
0.1875 0.1875 0
0.21875 0.21875 0
0.25 0.21875 0
0.21875 0.1875 0
0.25 0.1875 0
0.15625 0.15625 0
0.1875 0.15625 0
0.15625 0.125 0
0.1875 0.125 0
0.21875 0.15625 0
0.25 0.15625 0
0.21875 0.125 0
0.25 0.125 0
0.03125 0.09375 0
0.0625 0.09375 0
0.03125 0.0625 0
0.0625 0.0625 0
0.09375 0.09375 0
0.125 0.09375 0
0.09375 0.0625 0
0.125 0.0625 0
0.03125 0.03125 0
0.0625 0.03125 0
0.03125 0 0
0.0625 0 0
0.09375 0.03125 0
0.125 0.03125 0
0.09375 0 0
0.125 0 0
0.15625 0.09375 0
0.1875 0.09375 0
0.15625 0.0625 0
0.1875 0.0625 0
0.21875 0.09375 0
0.25 0.09375 0
0.21875 0.0625 0
0.25 0.0625 0
0.15625 0.03125 0
0.1875 0.03125 0
0.15625 0 0
0.1875 0 0
0.21875 0.03125 0
0.25 0.03125 0
0.21875 0 0
0.25 0 0
0.28125 0.21875 0
0.3125 0.21875 0
0.28125 0.1875 0
0.3125 0.1875 0
0.34375 0.21875 0
0.375 0.21875 0
0.34375 0.1875 0
0.375 0.1875 0
0.28125 0.15625 0
0.3125 0.15625 0
0.28125 0.125 0
0.3125 0.125 0
0.34375 0.15625 0
0.375 0.15625 0
0.34375 0.125 0
0.375 0.125 0
0.40625 0.21875 0
0.4375 0.21875 0
0.40625 0.1875 0
0.4375 0.1875 0
0.46875 0.21875 0
0.5 0.21875 0
0.46875 0.1875 0
0.5 0.1875 0
0.40625 0.15625 0
0.4375 0.15625 0
0.40625 0.125 0
0.4375 0.125 0
0.46875 0.15625 0
0.5 0.15625 0
0.46875 0.125 0
0.5 0.125 0
0.28125 0.09375 0
0.3125 0.09375 0
0.28125 0.0625 0
0.3125 0.0625 0
0.34375 0.09375 0
0.375 0.09375 0
0.34375 0.0625 0
0.375 0.0625 0
0.28125 0.03125 0
0.3125 0.03125 0
0.28125 0 0
0.3125 0 0
0.34375 0.03125 0
0.375 0.03125 0
0.34375 0 0
0.375 0 0
0.40625 0.09375 0
0.4375 0.09375 0
0.40625 0.0625 0
0.4375 0.0625 0
0.46875 0.09375 0
0.5 0.09375 0
0.46875 0.0625 0
0.5 0.0625 0
0.40625 0.03125 0
0.4375 0.03125 0
0.40625 0 0
0.4375 0 0
0.46875 0.03125 0
0.5 0.03125 0
0.46875 0 0
0.5 0 0
-0.5 -0.03125 0
-0.46875 -0.03125 0
-0.4375 -0.03125 0
-0.5 -0.0625 0
-0.46875 -0.0625 0
-0.4375 -0.0625 0
-0.40625 -0.03125 0
-0.375 -0.03125 0
-0.40625 -0.0625 0
-0.375 -0.0625 0
-0.5 -0.09375 0
-0.46875 -0.09375 0
-0.4375 -0.09375 0
-0.5 -0.125 0
-0.46875 -0.125 0
-0.4375 -0.125 0
-0.40625 -0.09375 0
-0.375 -0.09375 0
-0.40625 -0.125 0
-0.375 -0.125 0
-0.34375 -0.03125 0
-0.3125 -0.03125 0
-0.34375 -0.0625 0
-0.3125 -0.0625 0
-0.28125 -0.03125 0
-0.25 -0.03125 0
-0.28125 -0.0625 0
-0.25 -0.0625 0
-0.34375 -0.09375 0
-0.3125 -0.09375 0
-0.34375 -0.125 0
-0.3125 -0.125 0
-0.28125 -0.09375 0
-0.25 -0.09375 0
-0.28125 -0.125 0
-0.25 -0.125 0
-0.5 -0.15625 0
-0.46875 -0.15625 0
-0.4375 -0.15625 0
-0.5 -0.1875 0
-0.46875 -0.1875 0
-0.4375 -0.1875 0
-0.40625 -0.15625 0
-0.375 -0.15625 0
[...]
POINT_DATA 1089
SCALARS T float
LOOKUP_TABLE default
0
0
0
0
0
0
0
0
0
0
0
0
0
0
0
0
0
0
0
0
0
0
0
0
0
0
0
0
0
0
0
0
0
0
0
0
0
0
0
0
0
0
0
0
0
0
0
0
0
0
0
0
0
0
0
0
0
0
0
0
0
0
0
0
0
0
0
0
0
0
0
0
0
0
0
0
0
0
0
0
0
0
0
0
0
0
0
0
0
0
0
0
0
0
0
0
0
0
0
0
0
0
0
0
0
0
0
0
0
0
0
0
0
0
0
0
0
0
0
0
0
0
0
0
0
0
0
0
0
0
0
0
0
0
0
0
0
0
0
0
0
0
0
0
0
0
0
0
0
0
0
0
0
0
0
0
0
0
0
0
0
0
0
0
0
0
0
0
0
0
0
0
0
0
0
0
0
0
0
0
0
0
0
0
0
0
0
0
0
0
0
0
0
0
0
0
0
0
0
0
0
0
0
0
0
0
0
0
0.0197159
0
0
0
0
0
0
0
0
0.00280773
0.0708565
0.212923
0.511256
0.198749
0.289196
0.698749
0.789196
0
0
0
0
0
0
0
0
0
0
0
0
0
0
0
0
0
0
0
0
0
0
0
0
0
0
0
0
0
0
0
0
0
0
0
0
0
0
0
0
0.321104
0.308412
0.821104
0.808412
0.248747
0.132428
0.748747
0.627226
0
0
0
0
0
0
0
0
0.0294857
0
0.399772
0.126049
0
0
0.000560043
0
0
0
0
0
0
0
0
0
0
0
0
0
0
0
0
0
0
0
0
0
0
0
0
0
0
0
0
0
0
0
0
0
0
0
0
0
0
0
0
0
0
0
0
0
0
0
0
0
0
0
0
0.0903061
0.0293234
0.115115
0.365404
0.61089
0
0
0
0
0
0
0
0
0.142396
0.058676
0.642396
0.474499
0.00207168
0
0.17054
0.00264573
0
0
0
0
0
0
0
0
0
0
0
0
0
0
0
0
0
0
0
0
0
0
0
0
0
0
0
0
0
0
0
0
0
0
0
0
0
0
0
0
0
0
0
0
0
0
0
0
0
0
0
0
0
0
0
0
0
0
0
0
0
0
0
0
0
0
0
0
0
0
0
0
0.00429326
0.320594
0.0301041
0.506099
0.812076
0.995774
0.975995
1
0.0317037
0.516119
0.00589287
0.340364
0.984416
1
0.833248
0.998777
1
0.915775
1
0.999952
0.477836
0.0620618
0.648082
0.14813
1
0.999401
0.999399
0.883501
0.625072
0.125672
0.42106
0.0369577
0
0.100056
0
0
0.386014
0.628578
0.0371813
0.129801
0
0
0
0
0
0
0.00989818
0.051611
0.644273
0.436354
0.144874
0.0522538
0.134701
0
0
0
0
0
0.0510226
0.00930978
0
0
0
0
0
0
0
0
0
0
0
0
0
0
0
0
0
0
0
0
0
0
0
0
0
0
0
0
0
0
0
0
0
0
0
0
0
0
0
0
0
0
0
0
0
0
0
0
0
0
0
0
0
0
0
0
0
0
0
0
0
0
0
0
0
0
0
0
0
0
0
0
0
0
0
0.187691
0.0300509
0.447148
0
0
0
0
0
0
0.114533
0.613655
0.176405
0.676405
0.62809
0.940399
0.917097
1
1
1
1
1
0.999122
1
1
1
1
1
1
1
0
0
0
0
0
0
0.151597
0.651597
0.0670085
0.549321
0
0
0
0
0
0
0.00733421
0.342491
0
0.10301
1
1
0.982313
1
1
1
1
1
0.835156
1
0.448111
0.817239
1
1
0.972138
1
1
1
1
1
1
0.994797
1
1
1
1
1
1
1
1
1
1
0.870286
0.476366
1
0.814269
0.100877
0
0.314583
0.000314137
1
0.963922
1
0.999969
0.477259
0.0133368
0.534716
0.0347465
1
1
1
1
1
1
1
1
1
1
1
1
1
1
0.992211
0.911259
1
0.988193
1
0.904978
0.512453
0.0242595
0.407514
0.0025357
0.982757
0.694003
0.688699
0.314114
0.211247
0
0.0444621
0
0
0
0
0
0
0
0
0.000166174
0
0
0
0
0
0
0
0
0
0
0
0
0.0952674
0.320035
0
0.00279623
0.513582
0.600603
0.0414436
0.100603
0
0
0
0
0
0
0
0
0
0
0
0
0
0
0
0
0
0
0
0
0
0
0
0
0
0
0
0
0
0
0
0
0
0
0
0
0
0
0
0
0
0
0
0
0.624316
0.605345
0.124316
0.105345
0.54324
0.419303
0.0510287
0.00804431
0
0
0
0
0
0
0
0
0.205943
0.0368948
0
0
0
0
0
0
0
0
0
0
0
0
0
0
0
0
0
0
0
0
0
0
0
0
0
0
0
0
0
0
0
0
0
0
0
0
0
0
0
0
0
0
0
0
0
0
0
0.0112184
0
0.0908829
0.222231
0.502726
0.541998
0.951115
0
0.158457
0
0.0872555
0.658457
1
0.494913
0.883246
0.496679
0.21511
0.945656
0.522068
0.0101435
0
0.0764116
0
0.998421
0.601756
0.822608
0.384087
0.103335
0
0.0370672
0
0
0.00846327
0
0
0.166121
0.383246
0
0
0
0
0
0
0
0
0
0
0.361703
0.136115
0.0375161
0.0375161
0
0
0
0
0
0
0
0
0
0
0
0
0
0
0
0
0
0
0
0
0
0
0
0
0
0
0
0
0
0
0
0
0
0
0
0
0
0
0
0
0
0
0
0
0
0
0
0
0
0
0
0
0
0
0
0
0
0
0
0
0
0
0
0
0
0
0
0
0
0
0
0
0
0
0
0
0
0
0
0
0
0
0
0
0
0
0
0
0
0
0
0
0
0
0
0
0
0
0
0
0
0
0
0
0
0
0
0
0
0
0
0
0
0
0
0
0
0
0
0
0
0
0
0
0
0
0
0
0
0
0
0
0
0
0
0
0
0
0
0
0
0
0
0
0
0
0
0
0
0
0
0
0
0
0
0
0
0
0
0
0
0
0
0
0
0
0
0
0
0
0
0
0
0
0
0
0
0
0
0
0
0
0
0
0
0
0
0
0
0
0
0
0
0
0
0
0
0
0
0
0
0
0
0

SCALARS P float
LOOKUP_TABLE default
-0.0111697
-0.0110371
-0.0112297
-0.0111107
-0.0108711
-0.0109565
-0.0111445
-0.0109976
-0.0108242
-0.0106672
-0.010752
-0.0104227
-0.0104871
-0.0106226
-0.0103937
-0.011143
-0.0109848
-0.0108052
-0.011162
-0.0109939
-0.0108079
-0.0106039
-0.0103838
-0.0106036
-0.0103847
-0.0101411
-0.0101592
-0.00983461
-0.00977567
-0.0101439
-0.00988619
-0.00953389
-0.00937823
-0.00928414
-0.00903667
-0.00964435
-0.00944923
-0.010152
-0.00992148
-0.0101584
-0.00993739
-0.00971178
-0.00954613
-0.00973948
-0.00958485
-0.011198
-0.0110215
-0.0108283
-0.0112502
-0.0110671
-0.0108664
-0.0106175
-0.0103922
-0.0106457
-0.0104068
-0.0113176
-0.0111314
-0.0109249
-0.0114031
-0.0112196
-0.011011
-0.0106925
-0.0104333
-0.0107672
-0.0104825
-0.0101594
-0.00993204
-0.0101556
-0.00990563
-0.00972826
-0.00956904
-0.00967781
-0.00949779
-0.0101514
-0.00986034
-0.0101562
-0.00980073
-0.00958654
-0.00936598
-0.00945038
-0.00916093
-0.00912809
-0.00882011
-0.00909567
-0.00877847
-0.00932912
-0.00930346
-0.00918952
-0.00891288
-0.00938865
-0.00918612
-0.0093755
-0.00953303
-0.00944556
-0.00942435
-0.009492
-0.00947292
-0.00948592
-0.00962238
-0.00953105
-0.00966023
-0.00965712
-0.00953905
-0.00995314
-0.00990494
-0.00975377
-0.0100103
-0.0102442
-0.0102355
-0.0105129
-0.0105157
-0.0102808
-0.0105477
-0.00981968
-0.0100576
-0.00985058
-0.0100846
-0.0103231
-0.0105994
-0.0103594
-0.0106563
-0.00947393
-0.00945458
-0.00939008
-0.00936768
-0.00951449
-0.00964632
-0.00943376
-0.00957645
-0.00923376
-0.00920641
-0.00898782
-0.00895321
-0.00928591
-0.00945265
-0.00905746
-0.00926481
-0.00984128
-0.0100813
-0.00978603
-0.0100341
-0.0103711
-0.0106924
-0.0103386
-0.0107022
-0.00968661
-0.00993926
-0.00952761
-0.00978297
-0.0102576
-0.0106586
-0.0100944
-0.0104917
-0.0115086
-0.011337
-0.0111343
-0.0116394
-0.0114936
-0.0113109
-0.0108843
-0.0105723
-0.0110672
-0.0107322
-0.0117977
-0.0116966
-0.0115565
-0.0119946
-0.0119589
-0.0118938
-0.0113454
-0.0110072
-0.0117636
-0.0114755
-0.0101875
-0.00973648
-0.0102753
-0.0096855
-0.00926333
-0.00886216
-0.00901465
-0.00843117
-0.0104747
-0.00968835
-0.01089
-0.00982937
-0.00869366
-0.00780726
-0.00829379
-0.00689426
-0.0122191
-0.012279
-0.012338
-0.0124397
-0.0126195
-0.0128781
-0.0123806
-0.0122669
-0.0132605
-0.0136425
-0.0126306
-0.0129788
-0.0135459
-0.012673
-0.0131616
-0.0140694
-0.0145017
-0.0159286
-0.0158288
-0.0175852
-0.0117367
-0.01035
-0.0135714
-0.0118519
-0.00788593
-0.00555451
-0.00777244
-0.0037507
-0.0170018
-0.0113442
-0.00559177
0.0156217
0.000184228
0.00799984
0.0268636
0.0302972
-0.00862608
-0.00858733
-0.00809798
-0.00806298
-0.00874617
-0.00903757
-0.00832915
-0.00878352
-0.00732222
-0.00730585
-0.00616228
-0.00618502
-0.00777302
-0.00853844
-0.00700366
-0.00830098
-0.00936738
-0.00964358
-0.00926048
-0.00962335
-0.00987024
-0.0100289
-0.00978382
-0.00970354
-0.00932694
-0.00995794
-0.00961106
-0.0106556
-0.0103242
-0.0104925
-0.0113527
-0.0119242
-0.00439752
-0.00448904
-0.00180887
-0.0020038
-0.00591097
-0.00808532
-0.0044098
-0.00804283
0.0106842
0.0100494
0.0311339
0.0306362
0.00566702
-0.00347087
0.0287009
0.0230781
-0.0101304
-0.0115571
-0.0112705
-0.0130986
-0.0123538
-0.0129731
-0.0136516
-0.0139199
-0.0126048
-0.0160371
0.00808806
-0.0117391
-0.0155843
-0.0149766
-0.0187325
-0.0162023
-0.0107493
-0.0107409
-0.01095
-0.0109164
-0.0108
-0.0110279
-0.011102
-0.0110422
-0.0112117
-0.0111339
-0.0112013
-0.0113145
-0.0108777
-0.0111474
-0.0109772
-0.0113175
-0.0113482
-0.0114411
-0.0115552
-0.0115849
-0.0112999
-0.011205
-0.011383
-0.0112699
-0.0114063
-0.0115081
-0.0114563
-0.0113306
-0.0115022
-0.011376
-0.0116008
-0.0116482
-0.0115183
-0.0116528
-0.0116166
-0.0118185
-0.0117819
-0.0118305
-0.0120198
-0.012065
-0.0110767
-0.0115555
-0.0112015
-0.0119701
-0.0119125
-0.0118028
-0.0125577
-0.0120752
-0.011311
-0.0127375
-0.0113041
-0.00223614
-0.010836
-0.00101009
0.0290571
0.0575136
-0.0117074
-0.0120622
-0.0116634
-0.0123852
-0.0123896
-0.012396
-0.0129778
-0.0128439
0.00224231
-0.00776634
0.0610684
0.040405
-0.0140698
-0.0135664
0.0037157
-0.0146069
-0.0115226
-0.0114083
-0.0115223
-0.0114258
-0.0116542
-0.0116345
-0.0115042
-0.0114308
-0.0114702
-0.0114219
-0.011592
-0.0115329
-0.0118136
-0.0117685
-0.0120087
-0.0119287
-0.0116966
-0.0116105
-0.011819
-0.0117029
-0.0114219
-0.0113998
-0.0113574
-0.0113616
-0.0114601
-0.0113723
-0.0112748
-0.0113048
-0.0111697
-0.011217
-0.0112683
-0.0111445
-0.0115138
-0.0114045
-0.0115818
-0.0114524
-0.0112821
-0.011143
-0.0113139
-0.011162
-0.0122586
-0.0121216
-0.012545
-0.012328
-0.0119579
-0.011806
-0.012099
-0.0119117
-0.0129148
-0.0125675
-0.0132936
-0.0127241
-0.0122462
-0.0120168
-0.0123301
-0.0120868
-0.0116598
-0.0115122
-0.0117439
-0.0115817
-0.0113603
-0.011198
-0.0114201
-0.0112502
-0.0118288
-0.0116563
-0.0118999
-0.0117315
-0.0114901
-0.0113176
-0.0115707
-0.0114031
-0.00942741
0.02642
-0.00455175
0.0492283
0.0832061
0.105446
0.101608
0.105905
-0.00564689
0.0493389
-0.0118335
0.0264882
0.102027
0.105211
0.0843255
0.104558
0.106465
0.0951577
0.106385
0.105297
0.0409953
-0.00773536
0.0631822
0.00477907
0.105248
0.102997
0.104348
0.0887363
0.0602861
0.00437443
0.0356053
-0.00687169
-0.0141025
-0.00383581
-0.0146561
-0.0162138
0.0292652
0.0578803
-0.0134953
-0.00321201
-0.0152068
-0.0160796
-0.0155512
-0.0158026
-0.0176287
-0.0187924
-0.0162427
-0.0108825
0.0592745
0.034549
-0.00184178
-0.0120727
0.000649005
-0.0132162
-0.0159752
-0.0142054
-0.0191359
-0.0181279
-0.0115107
-0.017486
-0.0161996
-0.0147836
-0.0165815
-0.0151121
-0.0135167
-0.0127927
-0.0123353
-0.0122267
-0.0123777
-0.0121382
-0.0121642
-0.0120776
-0.0109115
-0.011539
-0.0114977
-0.0118358
-0.0118711
-0.0119762
-0.0120203
-0.0120824
-0.0119626
-0.0118081
-0.0119832
-0.0118765
-0.0116619
-0.0115086
-0.0117637
-0.0116394
-0.0119861
-0.0119441
-0.0120843
-0.0120601
-0.0118784
-0.0117977
-0.0120273
-0.0119946
-0.0125931
-0.0123893
-0.0133293
-0.0128628
-0.0123051
-0.0122565
-0.0125931
-0.0124389
-0.0138151
-0.0131857
-0.0140309
-0.0133132
-0.012793
-0.0125608
-0.0128634
-0.01259
-0.0122161
-0.0121934
-0.0123496
-0.0123197
-0.012192
-0.0122191
-0.0123484
-0.0124397
-0.0124354
-0.0124037
-0.0124418
-0.0124019
-0.0124677
-0.0126306
-0.012474
-0.012673
-0.0125543
-0.0130837
-0.014199
-0.0121574
-0.0124568
-0.0131959
-0.0164076
-0.00561413
-0.0121282
0.014863
-0.0116082
-0.0115842
-0.0117471
-0.0112465
-0.010997
-0.0107439
-0.00418641
0.0263388
0.0003365
0.0296415
0.0247186
0.0457595
0.0455322
0.049894
0.0464762
0.0434151
0.0477626
0.0459844
0.0492504
0.0491245
0.0483089
0.0487544
0.048336
0.0474527
0.0485542
0.0479999
-0.0111181
-0.0107879
-0.0103126
-0.0114049
-0.0114065
-0.0114944
-0.000755346
0.0278975
-0.00749101
0.0220413
-0.0119318
-0.012411
-0.0133923
-0.0122547
-0.0129215
-0.0141774
-0.0145119
0.0070485
-0.0164038
-0.0119863
0.047855
0.0486038
0.0484601
0.0490978
0.0485207
0.0479674
0.0483559
0.0473566
0.0403522
0.0503512
0.0114746
0.0369062
0.0481508
0.0460378
0.0452528
0.0436875
0.0423358
0.0423925
0.04529
0.0453845
0.0441159
0.0466581
0.0465892
0.0485695
0.0470364
0.0471286
0.0476519
0.0477238
0.0478398
0.0488754
0.0482198
0.048814
0.0403801
0.0127126
0.0509789
0.0395144
-0.012681
-0.016674
0.00512984
-0.0149357
0.0498202
0.0484599
0.0489013
0.0483386
0.0178104
-0.0111264
0.021029
-0.00828667
0.0475239
0.047555
0.0465747
0.0465473
0.048
0.0485115
0.0471207
0.0479588
0.0444821
0.0444432
0.0410052
0.040908
0.0455107
0.0473217
0.0418293
0.0391571
0.0485609
0.0472369
0.0488945
0.0433198
0.0194387
-0.00919064
0.012818
-0.0118737
0.0490822
0.0298125
0.0270432
0.001064
-0.00300151
-0.0150372
-0.0165999
-0.0161519
-0.0123034
-0.0128725
-0.0138001
-0.0121916
-0.0125992
-0.0131525
-0.0152474
-0.0179746
-0.0138567
-0.0148307
-0.0120031
-0.0122544
-0.0125373
-0.0117908
-0.0119114
-0.0120028
-0.0128138
-0.0130206
-0.0120197
-0.0118758
-0.0128033
0.00388216
-0.0151988
-0.0133082
0.0177201
0.0227765
-0.00763727
-0.000348319
-0.0126838
-0.0110876
-0.0113488
-0.0101497
-0.0082962
-0.00497248
-0.00837083
-0.00643573
-0.0115965
-0.0116231
-0.0115997
-0.0114342
-0.0113948
-0.0113014
-0.0114903
-0.0112295
-0.0111287
-0.0108361
-0.0113102
-0.0112268
-0.0110943
-0.011217
-0.0111107
-0.0109565
-0.0108969
-0.0106125
-0.010752
-0.0104871
-0.0107121
-0.0098111
-0.0103784
-0.0097141
-0.00862425
-0.00744477
-0.008919
-0.00817278
-0.0102243
-0.00972549
-0.0101592
-0.00977567
-0.00917334
-0.00867974
-0.00937823
-0.00903667
0.0236116
0.022734
0.00353831
0.00268372
0.0196862
0.0119146
-0.00169715
-0.00725405
-0.00274195
-0.00280313
-0.00514519
-0.00510655
-0.00457756
-0.00725741
-0.00609925
-0.00768192
-0.00408351
-0.0167835
-0.0120505
-0.0144411
-0.017175
-0.0146548
-0.0141215
-0.0133147
-0.0101205
-0.0119521
-0.00942222
-0.0107164
-0.0123504
-0.0122392
-0.0112961
-0.0114923
-0.00666828
-0.00659906
-0.00768641
-0.00762101
-0.00716697
-0.00814302
-0.00795693
-0.00857073
-0.00836232
-0.00830885
-0.00882011
-0.00877847
-0.00851569
-0.00891589
-0.00891288
-0.00918612
-0.00925893
-0.0101759
-0.00929904
-0.00995229
-0.010722
-0.0110129
-0.01042
-0.0107286
-0.009411
-0.00989
-0.00953905
-0.00990494
-0.0102804
-0.0105773
-0.0102355
-0.0105157
-0.0147971
-0.0119141
-0.0121457
0.00479933
0.0244465
0.0747277
0.0832816
0.15776
-0.0106878
0.0166068
-0.0113365
0.00232807
0.103459
0.163828
0.0752436
0.144487
0.0730137
0.0209455
0.157137
0.0777886
-0.0142307
-0.0146554
-0.00170341
-0.01379
0.162283
0.0920251
0.127278
0.0489918
0.00619166
-0.0114858
-0.00660833
-0.0114914
-0.0117378
-0.0115576
-0.0120722
-0.0122034
0.0167277
0.0580936
-0.0122532
-0.00898714
-0.0133967
-0.0124753
-0.014015
-0.0126876
-0.0115147
-0.00945324
-0.0115181
-0.0102662
0.0456237
0.00171041
-0.00469836
-0.00726557
-0.0137406
-0.0111794
-0.00997961
-0.00949367
-0.00675457
-0.00755443
-0.00876992
-0.00883418
-0.00963162
-0.00989294
-0.00975665
-0.0099221
-0.0137601
-0.0131111
-0.0132102
-0.0127461
-0.0127037
-0.0124561
-0.0124422
-0.0122488
-0.0118692
-0.0119555
-0.0113859
-0.0115554
-0.0119233
-0.0118836
-0.0115908
-0.0116178
-0.0123238
-0.0122877
-0.0121302
-0.0120745
-0.0123538
-0.0125543
-0.0120753
-0.0121574
-0.0118269
-0.011769
-0.0115948
-0.0115411
-0.0116849
-0.0116082
-0.0114134
-0.0112465
-0.010926
-0.0111324
-0.010277
-0.0107226
-0.0112826
-0.0113889
-0.0110265
-0.0112228
-0.0105052
-0.0108076
-0.0104339
-0.0107209
-0.0110544
-0.011239
-0.0109947
-0.0112117
-0.0114272
-0.0114113
-0.0113464
-0.0114147
-0.0113081
-0.0111181
-0.0114344
-0.0114049
-0.0113976
-0.0115414
-0.0114183
-0.0116265
-0.0117093
-0.0119318
-0.0118903
-0.0122547
-0.0133079
-0.0123145
-0.0126453
-0.0120226
-0.0113546
-0.0105645
-0.011358
-0.0108338
-0.0119812
-0.0116459
-0.0114857
-0.0113627
-0.0112365
-0.0109133
-0.0111567
-0.0109817
-0.00973856
-0.00965902
-0.0103338
-0.0102043
-0.0101437
-0.0102865
-0.0104
-0.0104853
-0.0106262
-0.0105377
-0.0108259
-0.0107703
-0.0106426
-0.0107168
-0.0108227
-0.0108791
-0.0111323
-0.0111419
-0.0109109
-0.0110037
-0.0110746
-0.0110061
-0.0110301
-0.0110374
-0.0107884
-0.0109313
-0.0107409
-0.0109164
-0.0110178
-0.0110764
-0.0110422
-0.0111339
-0.0109425
-0.0109288
-0.0110368
-0.0110548
-0.0109727
-0.0110242
-0.0110987
-0.0111458
-0.0111191
-0.0111635
-0.011205
-0.0112699
-0.0112148
-0.0112606
-0.0113306
-0.011376
-0.0106338
-0.010853
-0.0107226
-0.010904
-0.0110773
-0.0112688
-0.011102
-0.0112804
-0.010879
-0.0110168
-0.0109912
-0.011097
-0.0111697
-0.0113128
-0.0112147
-0.0113263
-0.0114666
-0.0116785
-0.0114663
-0.0116633
-0.0119476
-0.0123034
-0.0119005
-0.0121916
-0.0114628
-0.0116199
-0.01144
-0.0115534
-0.0117995
-0.0120031
-0.0116721
-0.0117908
-0.0111051
-0.0111828
-0.0112054
-0.0112604
-0.0112661
-0.0113434
-0.0113148
-0.0113611
-0.011305
-0.0113403
-0.0114083
-0.0114258
-0.0113688
-0.0113862
-0.0114308
-0.0114219
-0.0114181
-0.0114865
-0.0114002
-0.011428
-0.0115487
-0.0115965
-0.0114422
-0.0114342
-0.0113929
-0.0113853
-0.0113998
-0.0113616
-0.0113602
-0.0113102
-0.0113048
-0.0112297

SCALARS U float
LOOKUP_TABLE default
0.0163667
0.0159179
0.0157319
0.0152265
0.0155889
0.014797
0.0169012
0.0164847
0.0162014
0.0154358
0.0145384
0.0155215
0.0145456
0.016092
0.0161979
0.0173353
0.0169167
0.0166407
0.0176522
0.0172056
0.0169097
0.0165368
0.016633
0.0167868
0.0168578
0.0159075
0.0149266
0.016629
0.0157638
0.0165534
0.0171706
0.0176696
0.0170613
0.0189387
0.0186881
0.0180263
0.0190529
0.0169484
0.017484
0.0171347
0.0176141
0.0182142
0.0190838
0.0182698
0.0190526
0.0178361
0.0173428
0.0170069
0.0178699
0.0173187
0.0169271
0.0168475
0.0168841
0.0167155
0.0167091
0.0177427
0.0171287
0.0166648
0.0174521
0.0167735
0.0162149
0.0163812
0.0163171
0.0158266
0.0156733
0.0171283
0.0175777
0.0169263
0.0173715
0.0182064
0.0189661
0.0180191
0.0188183
0.0165073
0.0169713
0.01582
0.0163162
0.0176847
0.0185905
0.0171426
0.0182324
0.0203156
0.0204689
0.0216778
0.0222394
0.0201599
0.0212501
0.0229014
0.0238337
0.0238741
0.0251019
0.0222233
0.0229885
0.0200185
0.0209351
0.0198952
0.0207202
0.0217455
0.0223678
0.0214421
0.0219775
0.0245025
0.0259096
0.0247414
0.0261957
0.0234712
0.0236324
0.0246205
0.0260267
0.0242168
0.0255301
0.0234812
0.0230698
0.0227307
0.0227902
0.0222413
0.022168
0.0225333
0.0220005
0.0217036
0.0208857
0.0197902
0.020601
0.0196984
0.0205781
0.0213077
0.0218142
0.0213563
0.0219174
0.0196105
0.0206587
0.0194922
0.0208304
0.0216266
0.0223852
0.0221445
0.023329
0.0219987
0.0217492
0.0220839
0.0216912
0.0209371
0.019585
0.0204858
0.0183697
0.0227206
0.0224524
0.0242397
0.0248385
0.0211504
0.0184481
0.0248384
0.0242571
0.017043
0.0162823
0.0155829
0.0165988
0.0156996
0.0147658
0.0150247
0.0147088
0.0139022
0.0132502
0.0162657
0.0150922
0.0137356
0.0161378
0.0144895
0.0123739
0.0122771
0.0108803
0.00972941
0.00670403
0.0147523
0.0152668
0.01302
0.0134614
0.0162542
0.0176345
0.0146553
0.0165145
0.00993571
0.0100247
0.00408613
0.00320521
0.0114848
0.0142595
0.00507027
0.00976038
0.0162488
0.0138886
0.010497
0.0166795
0.0134351
0.00822597
0.00567818
-0.000437113
0.000163854
-0.0104893
0.0177614
0.0138172
0.00688164
0.0201215
0.0165879
0.0103621
-0.00412343
-0.0179607
0.00198781
-0.00613133
-0.00627327
-0.00914828
-0.0208155
-0.0259904
-0.00659626
0.00183675
-0.0214697
-0.00736228
-0.0289568
-0.0303979
-0.00652467
0.00396216
-0.0204394
-0.00414806
0.0160831
0.0210383
0.0192793
0.0210792
0.0188128
0.0213426
0.0229424
0.0248368
0.0239477
0.0265929
0.0178575
0.0217584
0.0161424
0.0229453
0.0255274
0.0288462
0.0290444
0.0334201
0.0268181
0.0292117
0.0294532
0.0331036
0.0324568
0.0378509
0.0386238
0.0480817
0.0317535
0.0346818
0.03572
0.0360127
0.0387543
0.0456159
0.0352762
0.0346047
0.0135098
0.0257162
0.0108293
0.0292717
0.0362487
0.0428901
0.0454947
0.0562576
0.012297
0.0279951
0.0199997
0.0177976
0.0436679
0.0578822
0.0188881
0.0268573
0.0446395
0.0412342
0.0591776
0.0526588
0.0341529
0.0254237
0.0395586
0.0253284
0.0665001
0.0623223
0.0398555
0.046395
0.0466363
0.0296627
0.0393533
0.0271224
0.0236303
0.0248304
0.02295
0.0240173
0.0224911
0.0218348
0.0223054
0.0231768
0.0218315
0.0223908
0.0213102
0.0211659
0.021294
0.0204894
0.0198122
0.018491
0.0199651
0.0202606
0.01771
0.0187285
0.0215345
0.0216956
0.0213183
0.0210942
0.0213734
0.0216596
0.0210473
0.0205375
0.0206791
0.0200097
0.0217172
0.021483
0.0212924
0.0223749
0.0213738
0.0239622
0.0228411
0.0226493
0.0249953
0.024592
0.0176721
0.0150232
0.0147521
0.0090544
0.0133479
0.0156829
0.00544798
0.0105688
0.0128059
0.00420863
0.0217775
0.0185459
0.00102921
0.0104842
0.0210202
0.028129
0.0218139
0.0275278
0.0235291
0.0351082
0.0293396
0.0279993
0.0378717
0.03387
0.0286865
0.045233
0.0348852
0.0425356
0.0491579
0.0412539
0.0464021
0.0404602
0.0202412
0.0195084
0.0197443
0.019013
0.0210695
0.0205379
0.0192017
0.0185118
0.0186288
0.0179926
0.0199272
0.0192797
0.0221381
0.0214728
0.0236912
0.0226772
0.0207183
0.0199459
0.0216227
0.0206301
0.0180424
0.0174524
0.017457
0.0168915
0.0186293
0.018
0.0168905
0.0163179
0.0163667
0.0157717
0.0174159
0.0169012
0.0191977
0.0184978
0.01973
0.0189269
0.0178701
0.0173353
0.0182312
0.0176522
0.0260197
0.0242614
0.0293265
0.0261662
0.0226632
0.0213141
0.023741
0.0219111
0.0326262
0.0275574
0.0318427
0.0266595
0.024319
0.0221313
0.0235269
0.0215546
0.0201956
0.0192578
0.0205276
0.019444
0.0184759
0.0178361
0.018575
0.0178699
0.0205843
0.01942
0.0201803
0.0191137
0.0185003
0.0177427
0.0182299
0.0174521
0.0458167
0.0548282
0.0634332
0.0793234
0.0588765
0.0501289
0.0789763
0.0551267
0.0569553
0.0699536
0.0342071
0.0368814
0.0689233
0.0444681
0.038274
0.0259476
0.0316019
0.0161706
0.0204174
-0.0101203