# vtk DataFile Version 2.0
Interface from PLIC
ASCII
DATASET POLYDATA
POINTS 144 float
0.125 0.01165778897847868 0
0.05494948760290162 0 0
0 0 0.05560339037114669
0 0.01141314936090304 0.125
0.125 0.03221561849987533 0.125
0.25 0.07933012138665949 0
0.1325315910273754 0 0
0.125 0 0.02276219576260595
0.125 0.02284552385872839 0.125
0.25 0.1072619662031835 0.125
0.2820298973733598 0.125 0.125
0.25 0.08660877416386781 0.125
0.25 0.0492997637157304 0
0.3131568996956134 0.125 0
0.361468666963405 0.25 0
0.3238273363849278 0.25 0.125
0.2547043488512347 0.125 0.125
0.2923456794297119 0.125 0
0.3267909720368665 0.25 0.125
0.3424839047811308 0.375 0.125
0.3700009441672153 0.375 0
0.354308011422951 0.25 0
0.3019075148546433 0.5 0.125
0.3281884928704723 0.5 0
0.3692594644776066 0.375 0
0.3429784864617776 0.375 0.125
0.25 0.5940506965532564 0
0.2101878507044962 0.625 0
0.1757765467735106 0.625 0.125
0.25 0.5672999205664278 0.125
0.3070968178907716 0.5 0.125
0.25 0.5723088444267541 0.125
0.25 0.6101681093067187 0
0.3369914119679801 0.5 0
0 0.7015489696662213 0
0 0.6781142485110341 0.125
0.125 0.6532861630506478 0.125
0.125 0.6767208842058349 0
0.125 0.6565801120159949 0.125
0.1773725223808015 0.625 0.125
0.2185339947574282 0.625 0
0.125 0.6814000719741133 0
0 0.07885151220066386 0.25
0 0 0.1336039135971194
0.02585983903727754 0 0.125
0.125 0.02234557276995242 0.125
0.125 0.1070257310956111 0.25
0.125 0.09346184170131842 0.25
0.1649695422209583 0.125 0.25
0.25 0.125 0.164679530610342
0.25 0.09379709983005577 0.125
0.1311272647452726 0 0.125
0.125 0 0.1311481628794691
0.25 0.125 0.174059620408705
0.25 0.07914234850161585 0.125
0.2832803040245477 0.125 0.125
0.25 0.25 0.2348422025975327
0.2347159250105631 0.25 0.25
0.1400341998797471 0.125 0.25
0.25 0.125 0.1409427413451591
0.25 0.1826760175566554 0.125
0.25 0.25 0.1754060737905938
0.2866124569162146 0.25 0.125
0.25 0.2631948635965087 0.25
0.25 0.25 0.2472506468616508
0.2472658572093611 0.25 0.25
0.3292505929407146 0.25 0.125
0.25 0.25 0.2388013497287523
0.25 0.2888243410612062 0.25
0.2673101690304778 0.375 0.25
0.3543594363827653 0.375 0.125
0.25 0.4078878261151538 0.25
0.25 0.5 0.2087680146782005
0.2090858268945784 0.5 0.25
0.3041149529158892 0.5 0.125
0.25 0.5 0.2018606835460978
0.25 0.4077490874214977 0.25
0.2620321016765898 0.375 0.25
0.3500402848256399 0.375 0.125
0 0.599528045794528 0.25
0 0.625 0.2170486980857899
0.125 0.625 0.1806820063009065
0.125 0.5714159332546107 0.25
0.25 0.5788396117937521 0.125
0.196528622560761 0.625 0.125
0.125 0.625 0.197439811470735
0.125 0.5801969535441102 0.25
0.2178987328545431 0.5 0.25
0.25 0.5 0.2174898011909394
0.25 0.5 0.2211841741487467
0.25 0.5825295387839471 0.125
0.3096520131947753 0.5 0.125
0.125 0.6570527328719994 0.125
0.125 0.625 0.1784073066324936
0 0.625 0.2220848006040289
0 0.683266057135317 0.125
0.125 0.625 0.1930196952955609
0.1918485443717404 0.625 0.125
0.125 0.6602056309245441 0.125
0.125 0.125 0.2823532853227267
0.125 0.08591598041821752 0.25
0 0.04843099282797611 0.25
0 0.125 0.3133829110317271
0.1742503370129641 0.125 0.25
0.125 0.0788104515745601 0.25
0.125 0.125 0.2834108094063852
0 0.25 0.3606351157833847
0.125 0.25 0.3234507427910087
0.125 0.125 0.2540574577343283
0 0.125 0.2912418307267043
0.125 0.1801827503967067 0.25
0.1777239584011037 0.25 0.25
0.125 0.25 0.2881765744327951
0.125 0.25 0.3278562882634364
0.125 0.375 0.3438475838798514
0 0.375 0.3714118927184001
0 0.25 0.3554205971019851
0.125 0.25 0.3305970220753783
0.2394230865888137 0.25 0.25
0.25 0.287342187357329 0.25
0.25 0.375 0.2674886047083076
0.125 0.375 0.3555357642437436
0.25 0.294599183424197 0.25
0.25 0.375 0.2661662897594375
0.2661004917898681 0.375 0.25
0.125 0.5 0.3023516151566653
0 0.5 0.3287962402618538
0 0.375 0.3691369354857589
0.125 0.375 0.3426923103805704
0.125 0.5 0.3037395270868575
0.2013299395419312 0.5 0.25
0.25 0.4074036110666074 0.25
0.25 0.375 0.2619911315635653
0.125 0.375 0.3499964532783431
0.25 0.4116428152247617 0.25
0.25 0.375 0.261827738918462
0.2618100600416379 0.375 0.25
0.125 0.5 0.3072451213456019
0.125 0.572730872101378 0.25
0 0.6123668009668615 0.25
0 0.5 0.3384418262935033
0.2210466228814377 0.5 0.25
0.125 0.583620077653658 0.25
0.125 0.5 0.3100610329293179
POLYGONS 36 180
5 0 1 2 3 4
5 5 6 7 8 9
4 10 11 12 13
4 14 15 16 17
4 18 19 20 21
4 22 23 24 25
4 26 27 28 29
4 30 31 32 33
4 34 35 36 37
4 38 39 40 41
5 42 43 44 45 46
6 47 48 49 50 51 52
3 53 54 55
4 56 57 58 59
3 60 61 62
3 63 64 65
5 66 67 68 69 70
3 71 72 73
5 74 75 76 77 78
4 79 80 81 82
6 83 84 85 86 87 88
3 89 90 91
4 92 93 94 95
3 96 97 98
4 99 100 101 102
3 103 104 105
4 106 107 108 109
3 110 111 112
4 113 114 115 116
5 117 118 119 120 121
3 122 123 124
4 125 126 127 128
5 129 130 131 132 133
3 134 135 136
4 137 138 139 140
3 141 142 143
CELL_DATA 36
SCALARS cl float
LOOKUP_TABLE default
0
0
0
0
0
0
0
0
0
0
0
0
0
0
0
0
0
0
0
0
0
0
0
0
0
0
0
0
0
0
0
0
0
0
0
0
