# vtk DataFile Version 2.0
Interface from PLIC
ASCII
DATASET POLYDATA
POINTS 417 float
0.5 0.4768935226901644 0.375
0.477725959694755 0.5 0.375
0.5 0.5 0.3655869628654327
0.5625 0.5 0.3661682515896856
0.5625 0.4796749641418944 0.375
0.5 0.4736152057668278 0.375
0.5 0.5 0.3635351314432067
0.5625 0.4846304225750783 0.375
0.5756655214402142 0.5 0.375
0.5625 0.5 0.3690497053521577
0.5 0.5625 0.3677715419020341
0.4839434907785867 0.5625 0.375
0.4747515351386167 0.5 0.375
0.5 0.5 0.3636334278658105
0.5 0.5 0.363967728990211
0.5625 0.5 0.3663289010173526
0.5625 0.5625 0.3700034633810023
0.5 0.5625 0.3676422913538607
0.5625 0.5625 0.3708429913671514
0.5708565926781977 0.5625 0.375
0.5793272500487003 0.5 0.375
0.5625 0.5 0.3666292409582136
0.4891157569304305 0.5625 0.375
0.5 0.5716417743931874 0.375
0.5 0.5625 0.3710626553438027
0.5625 0.5625 0.3709038798285618
0.5625 0.5705601982416836 0.375
0.5 0.5758903920883849 0.375
0.5 0.5625 0.3681951233093687
0.5648377369249741 0.5625 0.375
0.5625 0.5647595633161981 0.375
0.5625 0.5625 0.3740135124335043
0.4375 0.4375 0.4309430719275892
0.4375 0.4314686423853297 0.4375
0.431591481298769 0.4375 0.4375
0.4375 0.4260491179704609 0.4375
0.4375 0.4375 0.4250818995941419
0.5 0.4375 0.3891462176755957
0.5 0.3929123868399735 0.4375
0.5625 0.3964143305194561 0.4375
0.5625 0.4375 0.392349293834393
0.5 0.4375 0.3883356175583549
0.5 0.3927620160623056 0.4375
0.625 0.4343516127720722 0.4375
0.625 0.4375 0.4340823082686517
0.5625 0.4375 0.3923682674473141
0.5625 0.3959245211351831 0.4375
0.4263806006075473 0.4375 0.4375
0.4375 0.4375 0.4251918285346983
0.4375 0.5 0.3908843944891093
0.3953867147684876 0.5 0.4375
0.4375 0.5 0.3904925940387806
0.4628679102011511 0.5 0.375
0.5 0.4611497941659329 0.375
0.5 0.4375 0.3888045699742167
0.4375 0.4375 0.426974333259639
0.5 0.4375 0.3908348679167523
0.5 0.4683134663312125 0.375
0.5625 0.473514600016626 0.375
0.5625 0.4375 0.3935077014123616
0.625 0.5 0.3987963336676466
0.5918497182638307 0.5 0.375
0.5625 0.4651110377884191 0.375
0.5625 0.4375 0.3916732952938054
0.625 0.4375 0.4365377964785779
0.6272292588913423 0.4375 0.4375
0.625 0.4375 0.4348411279847729
0.625 0.5 0.400408141605835
0.6560986593743737 0.5 0.4375
0.4004951206276834 0.5625 0.4375
0.4375 0.5625 0.3959275386693786
0.4375 0.5 0.3897058325525359
0.3949569957013591 0.5 0.4375
0.4375 0.5 0.3923444824255372
0.4691755392105896 0.5 0.375
0.4767779110957957 0.5625 0.375
0.4375 0.5625 0.3965072909788095
0.625 0.5 0.4008023381573558
0.5866390613466544 0.5 0.375
0.580077474036481 0.5625 0.375
0.625 0.5625 0.4052157936297584
0.6525323267127299 0.5625 0.4375
0.625 0.5625 0.404629628330804
0.625 0.5 0.3998952678832663
0.6564978419167938 0.5 0.4375
0.4375 0.6225413431695281 0.4375
0.4375 0.5625 0.3959279060514748
0.4000137108619557 0.5625 0.4375
0.5 0.625 0.4018290192840474
0.5 0.5890836529412393 0.375
0.4688964750139405 0.5625 0.375
0.4375 0.5625 0.3950446545949621
0.4375 0.6193355072514179 0.4375
0.4441275952416441 0.625 0.4375
0.5 0.625 0.4039704468401468
0.5 0.5838483585704511 0.375
0.5625 0.579749174183712 0.375
0.5625 0.625 0.4068562418956684
0.5625 0.625 0.404999492236801
0.5625 0.5852029386753259 0.375
0.5858726459935871 0.5625 0.375
0.625 0.5625 0.4036495347847982
0.625 0.6074057280504754 0.4375
0.6068867197911226 0.625 0.4375
0.625 0.6082391848612317 0.4375
0.625 0.5625 0.4057996065605324
0.6515058662165619 0.5625 0.4375
0.4420614366804464 0.625 0.4375
0.5 0.625 0.404025216210516
0.5 0.6524756410026233 0.4375
0.5625 0.6505033530753928 0.4375
0.5625 0.625 0.4063909351567478
0.5 0.625 0.4033371297688642
0.5 0.653006876643946 0.4375
0.6071926693467924 0.625 0.4375
0.5625 0.625 0.4076060281097068
0.5625 0.6494922346673605 0.4375
0.4268204420528781 0.4375 0.4375
0.4375 0.4265999159126634 0.4375
0.4375 0.4009411517402217 0.5
0.4016807957312978 0.4375 0.5
0.4375 0.4009865795735771 0.5
0.4827264980228372 0.375 0.5
0.5 0.375 0.4776006250713551
0.5 0.3927685421380423 0.4375
0.4375 0.428680259700796 0.4375
0.5 0.3949919937249022 0.4375
0.5 0.375 0.4890327937496542
0.5625 0.375 0.4956601547689383
0.5625 0.3975630586773253 0.4375
0.625 0.4086231806241304 0.5
0.5752065666820028 0.375 0.5
0.5625 0.375 0.4814851042092808
0.5625 0.3953835251870836 0.4375
0.62487137121647 0.4375 0.4375
0.625 0.4375 0.4376874265946377
0.6266746543255621 0.4375 0.4375
0.625 0.4356603234360033 0.4375
0.625 0.4099048080118804 0.5
0.6501198545070467 0.4375 0.5
0.4017144348662827 0.4375 0.5
0.375 0.4869524887350891 0.5
0.375 0.5 0.4838256425664558
0.3951873789165751 0.5 0.4375
0.4289501322551743 0.4375 0.4375
0.625 0.4375 0.4435118124663296
0.625 0.4420729754795885 0.4375
0.6215421768800358 0.4375 0.4375
0.6573122767252387 0.5 0.4375
0.625 0.4385357814814352 0.4375
0.625 0.4375 0.4387715626050224
0.6512197632529186 0.4375 0.5
0.6840765593531968 0.5 0.5
0.397164327928113 0.5 0.4375
0.375 0.5 0.4952720873371368
0.375 0.5285323751383314 0.5
0.3771594005537189 0.5625 0.5
0.4011375976270413 0.5625 0.4375
0.6517603034449919 0.5625 0.4375
0.6556970705795214 0.5 0.4375
0.6794478194397491 0.5 0.5
0.6755110523052195 0.5625 0.5
0.3992652365575171 0.5625 0.4375
0.4375 0.6178009662235002 0.4375
0.4375 0.625 0.4482041530790211
0.413415228700739 0.625 0.5
0.375 0.5694380173021504 0.5
0.375 0.5625 0.4896839490447253
0.4375 0.625 0.4518149514844833
0.4477161954134424 0.625 0.4375
0.4375 0.6170847844558849 0.4375
0.625 0.625 0.4680137312355411
0.606972606301809 0.625 0.4375
0.625 0.6078094376973499 0.4375
0.6529907600207939 0.5625 0.4375
0.625 0.605034603874534 0.4375
0.625 0.625 0.4667468253745862
0.639938418102466 0.625 0.5
0.681067812570555 0.5625 0.5
0.4375 0.625 0.4456247686686431
0.4154896903528296 0.625 0.5
0.4375 0.6450394900875596 0.5
0.5 0.6540210545132787 0.4375
0.4469179067085952 0.625 0.4375
0.4375 0.625 0.4494905891095381
0.4375 0.6466895885938486 0.5
0.5 0.68085960327512 0.5
0.5625 0.6499047363794167 0.4375
0.5 0.6524307991588817 0.4375
0.5 0.6761448881311429 0.5
0.5625 0.6736188253516779 0.5
0.5625 0.6511808273638535 0.4375
0.6041522352490386 0.625 0.4375
0.625 0.625 0.4671788208208481
0.625 0.6394914582626128 0.5
0.5625 0.6787763057733742 0.5
0.625 0.625 0.4699226581423278
0.6363913498584908 0.625 0.5
0.625 0.6361632919157504 0.5
0.4116836099636816 0.4375 0.5625
0.4375 0.4111441979869454 0.5625
0.4375 0.4006991701142887 0.5
0.4014523556323902 0.4375 0.5
0.4375 0.4023922052106374 0.5
0.4876815332591906 0.375 0.5
0.5 0.375 0.5414329922211103
0.5 0.3784189778111726 0.5625
0.4375 0.4125353691303097 0.5625
0.5 0.3817984614968115 0.5625
0.5 0.375 0.5173670891939145
0.5625 0.375 0.500703882675919
0.5625 0.3843084739445514 0.5625
0.625 0.410349365139716 0.5
0.5711352515802043 0.375 0.5
0.5625 0.375 0.5327520814984779
0.5625 0.3801471835377129 0.5625
0.625 0.4211635325608952 0.5625
0.6408332851233048 0.4375 0.5625
0.625 0.4200842217145702 0.5625
0.625 0.4095508013112699 0.5
0.6504095811599062 0.4375 0.5
0.4030281645174317 0.4375 0.5
0.375 0.4923501365297557 0.5
0.375 0.5 0.524431411780068
0.3810910033299559 0.5 0.5625
0.4130282124814622 0.4375 0.5625
0.6399376606490391 0.4375 0.5625
0.6499377086130687 0.4375 0.5
0.6814335593856997 0.5 0.5
0.6714335114216701 0.5 0.5625
0.3840294026905809 0.5 0.5625
0.375 0.5 0.5022242151555243
0.375 0.5053565264763713 0.5
0.3785544820355627 0.5625 0.5
0.3879170754819594 0.5625 0.5625
0.6650585786924547 0.5625 0.5625
0.6688389120790024 0.5 0.5625
0.6779099292779618 0.5 0.5
0.674129595891414 0.5625 0.5
0.4151552546067459 0.625 0.5
0.375 0.5657176340452144 0.5
0.375 0.5625 0.5123328788115631
0.3838656017893208 0.5625 0.5625
0.4262003394891581 0.625 0.5625
0.625 0.625 0.5566237930128309
0.6237195802570906 0.625 0.5625
0.625 0.6237820297869751 0.5625
0.6791232281643427 0.5625 0.5
0.6681186464769965 0.5625 0.5625
0.6274020485884422 0.625 0.5625
0.6384066302757884 0.625 0.5
0.4375 0.6359324068927686 0.5625
0.4254777883571816 0.625 0.5625
0.415114261081171 0.625 0.5
0.4375 0.645356487951376 0.5
0.4375 0.6351996705786992 0.5625
0.4375 0.6453428344983707 0.5
0.5 0.6784405858692275 0.5
0.5 0.668297421949556 0.5625
0.5625 0.6632215350872186 0.5625
0.5 0.6656266693549565 0.5625
0.5 0.6745778029943454 0.5
0.5625 0.6721726687266074 0.5
0.5625 0.6768578719343769 0.5
0.5625 0.666074821365514 0.5625
0.625 0.6272538937230199 0.5625
0.625 0.6380369442918826 0.5
0.625 0.6275281024494049 0.5625
0.6275803775080414 0.625 0.5625
0.6372942377421351 0.625 0.5
0.625 0.6370451726356312 0.5
0.4375 0.4375 0.5964977717146804
0.4375 0.4129739988057424 0.5625
0.4134858898034871 0.4375 0.5625
0.4375 0.4115644397934587 0.5625
0.4375 0.4375 0.5957973991747064
0.4746996709075688 0.4375 0.625
0.5 0.4220298713576005 0.625
0.5 0.375 0.5646206448883969
0.4972986210224174 0.375 0.5625
0.5625 0.4280608613267066 0.625
0.5 0.4248637950457341 0.625
0.5 0.3762255745619785 0.5625
0.5625 0.3794226408429509 0.5625
0.625 0.4196004425563361 0.5625
0.625 0.4375 0.5858266050029142
0.5807156045429501 0.4375 0.625
0.5625 0.4251355489750817 0.625
0.5625 0.3771764764872834 0.5625
0.625 0.4375 0.5827853053385318
0.625 0.4228827934586253 0.5625
0.638292461673296 0.4375 0.5625
0.4121766722340284 0.4375 0.5625
0.4375 0.4375 0.5955244387823436
0.4375 0.4765225565858793 0.625
0.4239017664306101 0.5 0.625
0.375976410429726 0.5 0.5625
0.4375 0.4770989430090043 0.625
0.4747347717791528 0.4375 0.625
0.4375 0.4375 0.5998139678056501
0.625 0.4924177711287266 0.625
0.5819105993996492 0.4375 0.625
0.625 0.4375 0.589554306424809
0.6405197255679193 0.4375 0.5625
0.625 0.4375 0.5841927873023613
0.625 0.4913547258421796 0.625
0.6296866288522893 0.5 0.625
0.6744011615896002 0.5 0.5625
0.4314893834425986 0.5625 0.625
0.4265075793896861 0.5 0.625
0.3784874402655851 0.5 0.5625
0.3834692443184976 0.5625 0.5625
0.625 0.5 0.6248116811866132
0.6247679291736192 0.5 0.625
0.6190017857829605 0.5625 0.625
0.625 0.5625 0.6201326213578457
0.6682157541680767 0.5625 0.5625
0.625 0.5625 0.6216589289788208
0.625 0.5316293182139729 0.625
0.6275006396355807 0.5 0.625
0.6731570550259228 0.5 0.5625
0.4244354739974966 0.625 0.5625
0.4375 0.625 0.5800140448697386
0.4375 0.5755413951505194 0.625
0.4286515675859253 0.5625 0.625
0.3820299629692046 0.5625 0.5625
0.4958775703503581 0.625 0.625
0.4375 0.5756079323783673 0.625
0.4375 0.625 0.5833810249806469
0.5 0.625 0.6218027964546131
0.5 0.6212500170775556 0.625
0.5625 0.617701475504187 0.625
0.5625 0.625 0.6187773400901529
0.5625 0.625 0.6246091517888396
0.5625 0.6245482460164536 0.625
0.625 0.5639091324341574 0.625
0.625 0.625 0.5721454438123454
0.6292753060121526 0.625 0.5625
0.625 0.625 0.5687332144132397
0.625 0.5630736815226038 0.625
0.6253575220607772 0.5625 0.625
0.6682257130204816 0.5625 0.5625
0.4375 0.625 0.5747999497010028
0.4288226652722393 0.625 0.5625
0.4375 0.6329043698948424 0.5625
0.4375 0.635920254250356 0.5625
0.4375 0.625 0.5781760504904783
0.4969786740919638 0.625 0.625
0.5 0.6266569157848271 0.625
0.5 0.6701956815639891 0.5625
0.5625 0.666288082740725 0.5625
0.5625 0.625 0.619882569446317
0.5 0.625 0.6242826360247102
0.5 0.6694540321693814 0.5625
0.625 0.6288758270315177 0.5625
0.625 0.625 0.5682314624438212
0.5625 0.625 0.623445099591349
0.5625 0.6662133319811493 0.5625
0.4826994190295496 0.4375 0.625
0.5 0.4282409138957523 0.625
0.5 0.4375 0.6326306253724538
0.5625 0.4375 0.632004365079286
0.5625 0.4289559497852487 0.625
0.5 0.4260803480367085 0.625
0.5 0.4375 0.6343617674778153
0.5711439794409505 0.4375 0.625
0.5625 0.4321686849190018 0.625
0.5625 0.4375 0.6294003392641393
0.4375 0.4857771923320014 0.625
0.4303636439583298 0.5 0.625
0.4375 0.5 0.6310078842256968
0.5 0.4375 0.635992072980599
0.4790218302629481 0.4375 0.625
0.4375 0.4806649269580534 0.625
0.4375 0.5 0.6347454815495697
0.5 0.5 0.6674940277715998
0.5 0.5 0.6651070177320386
0.5625 0.5 0.6624718695956495
0.5625 0.4375 0.6320791850616473
0.5 0.4375 0.6347143331980364
0.5625 0.4375 0.6329764095687263
0.5761111710786236 0.4375 0.625
0.625 0.4945941766376589 0.625
0.625 0.5 0.6277126366428738
0.5625 0.5 0.664338845744626
0.4375 0.5625 0.6291633908863742
0.4325325420808721 0.5625 0.625
0.4281409781765214 0.5 0.625
0.4375 0.5 0.6328441059390169
0.5 0.5 0.6653776161813839
0.5 0.5625 0.6612148076281136
0.4375 0.5625 0.6292479510847249
0.4375 0.5 0.6334107596379952
0.5625 0.5625 0.656282260420925
0.5 0.5625 0.6586434324480669
0.5 0.5 0.6623179948117164
0.5625 0.5 0.6599568227845745
0.5625 0.5625 0.6589186927940818
0.6198484153593267 0.5625 0.625
0.625 0.519350175854375 0.625
0.625 0.5 0.6263663577051823
0.5625 0.5 0.6633319527673542
0.4375 0.5642511366180022 0.625
0.4364042390654727 0.5625 0.625
0.4375 0.5625 0.6259253545219312
0.4375 0.5625 0.630149808024551
0.4375 0.5711234616830986 0.625
0.4997550167611765 0.625 0.625
0.5 0.625 0.6251266109020106
0.5 0.5625 0.6624507173180303
0.5625 0.5625 0.6589982697058622
0.5625 0.6181575775432605 0.625
0.5 0.6228815085685196 0.625
0.5 0.5625 0.6618838692622535
0.6223351727632372 0.5625 0.625
0.5625 0.6206782619110205 0.625
0.5625 0.5625 0.658838012907529
POLYGONS 102 519
3 0 1 2
4 3 4 5 6
3 7 8 9
4 10 11 12 13
4 14 15 16 17
4 18 19 20 21
3 22 23 24
4 25 26 27 28
3 29 30 31
3 32 33 34
4 35 36 37 38
4 39 40 41 42
4 43 44 45 46
4 47 48 49 50
5 51 52 53 54 55
4 56 57 58 59
5 60 61 62 63 64
4 65 66 67 68
4 69 70 71 72
4 73 74 75 76
4 77 78 79 80
4 81 82 83 84
3 85 86 87
6 88 89 90 91 92 93
4 94 95 96 97
6 98 99 100 101 102 103
3 104 105 106
3 107 108 109
4 110 111 112 113
3 114 115 116
4 117 118 119 120
5 121 122 123 124 125
4 126 127 128 129
6 130 131 132 133 134 135
4 136 137 138 139
5 140 141 142 143 144
3 145 146 147
5 148 149 150 151 152
5 153 154 155 156 157
4 158 159 160 161
6 162 163 164 165 166 167
3 168 169 170
3 171 172 173
5 174 175 176 177 178
3 179 180 181
5 182 183 184 185 186
4 187 188 189 190
5 191 192 193 194 195
3 196 197 198
4 199 200 201 202
5 203 204 205 206 207
4 208 209 210 211
5 212 213 214 215 216
4 217 218 219 220
5 221 222 223 224 225
4 226 227 228 229
5 230 231 232 233 234
4 235 236 237 238
5 239 240 241 242 243
3 244 245 246
4 247 248 249 250
4 251 252 253 254
4 255 256 257 258
4 259 260 261 262
4 263 264 265 266
4 267 268 269 270
3 271 272 273
6 274 275 276 277 278 279
4 280 281 282 283
5 284 285 286 287 288
3 289 290 291
5 292 293 294 295 296
3 297 298 299
3 300 301 302
5 303 304 305 306 307
4 308 309 310 311
4 312 313 314 315
5 316 317 318 319 320
5 321 322 323 324 325
3 326 327 328
4 329 330 331 332
4 333 334 335 336
5 337 338 339 340 341
3 342 343 344
5 345 346 347 348 349
4 350 351 352 353
4 354 355 356 357
3 358 359 360
4 361 362 363 364
3 365 366 367
3 368 369 370
5 371 372 373 374 375
4 376 377 378 379
5 380 381 382 383 384
4 385 386 387 388
4 389 390 391 392
4 393 394 395 396
5 397 398 399 400 401
3 402 403 404
5 405 406 407 408 409
4 410 411 412 413
3 414 415 416
CELL_DATA 102
SCALARS cl float
LOOKUP_TABLE default
0
0
0
0
0
0
0
0
0
0
0
0
0
0
0
0
0
0
0
0
0
0
0
0
0
0
0
0
0
0
0
0
0
0
0
0
0
0
0
0
0
0
0
0
0
0
0
0
0
0
0
0
0
0
0
0
0
0
0
0
0
0
0
0
0
0
0
0
0
0
0
0
0
0
0
0
0
0
0
0
0
0
0
0
0
0
0
0
0
0
0
0
0
0
0
0
0
0
0
0
0
0
