# vtk DataFile Version 2.0
Interface from marching cubes
ASCII
DATASET POLYDATA
POINTS 744 float
0.5 0.375 0.2484491731218813
0.5 0.3729491716244631 0.25
0.4956618454853561 0.375 0.25
0.5 0.3729491716244631 0.25
0.5 0.375 0.2484491731218813
0.5052395357952149 0.375 0.25
0.375 0.5 0.2489235715936089
0.375 0.496975655720352 0.25
0.3735891315689819 0.5 0.25
0.4956618454853561 0.375 0.25
0.375 0.496975655720352 0.25
0.375 0.5 0.2489235715936089
0.4956618454853561 0.375 0.25
0.375 0.5 0.2489235715936089
0.5 0.375 0.2484491731218813
0.5 0.375 0.2484491731218813
0.375 0.5 0.2489235715936089
0.5 0.5 0.2094063831831388
0.625 0.4733730195578076 0.25
0.5052395357952149 0.375 0.25
0.5 0.375 0.2484491731218813
0.625 0.4733730195578076 0.25
0.5 0.375 0.2484491731218813
0.625 0.5 0.2407049441026461
0.625 0.5 0.2407049441026461
0.5 0.375 0.2484491731218813
0.5 0.5 0.2094063831831388
0.625 0.4733730195578076 0.25
0.625 0.5 0.2407049441026461
0.6375218885127196 0.5 0.25
0.375 0.5 0.2489235715936089
0.3735891315689819 0.5 0.25
0.375 0.5037572679930461 0.25
0.375 0.5037572679930461 0.25
0.4690445228780069 0.625 0.25
0.5 0.625 0.2390791645039078
0.375 0.5037572679930461 0.25
0.5 0.625 0.2390791645039078
0.375 0.5 0.2489235715936089
0.375 0.5 0.2489235715936089
0.5 0.625 0.2390791645039078
0.5 0.5 0.2094063831831388
0.5360340322847111 0.625 0.25
0.625 0.5318619375469958 0.25
0.625 0.5 0.2407049441026461
0.5360340322847111 0.625 0.25
0.625 0.5 0.2407049441026461
0.5 0.625 0.2390791645039078
0.5 0.625 0.2390791645039078
0.625 0.5 0.2407049441026461
0.5 0.5 0.2094063831831388
0.6375218885127196 0.5 0.25
0.625 0.5 0.2407049441026461
0.625 0.5318619375469958 0.25
0.5 0.625 0.2390791645039078
0.4690445228780069 0.625 0.25
0.5 0.6396635295783298 0.25
0.5360340322847111 0.625 0.25
0.5 0.625 0.2390791645039078
0.5 0.6396635295783298 0.25
0.5 0.25 0.3721264787327022
0.5 0.2478125724659591 0.375
0.49392702569972 0.25 0.375
0.5 0.2478125724659591 0.375
0.5 0.25 0.3721264787327022
0.5074107439531079 0.25 0.375
0.375 0.375 0.2936723297513492
0.375 0.2934772382995367 0.375
0.293793552312943 0.375 0.375
0.49392702569972 0.25 0.375
0.375 0.2934772382995366 0.375
0.375 0.375 0.2936723297513492
0.5 0.25 0.3721264787327022
0.49392702569972 0.25 0.375
0.375 0.375 0.2936723297513492
0.5 0.25 0.3721264787327022
0.375 0.375 0.2936723297513492
0.4956618454853561 0.375 0.25
0.5 0.25 0.3721264787327022
0.4956618454853561 0.375 0.25
0.5 0.3729491716244631 0.25
0.5052395357952149 0.375 0.25
0.625 0.375 0.285791038886522
0.625 0.2852574135647438 0.375
0.5 0.3729491716244631 0.25
0.5052395357952149 0.375 0.25
0.625 0.2852574135647438 0.375
0.5 0.3729491716244631 0.25
0.625 0.2852574135647438 0.375
0.5074107439531079 0.25 0.375
0.5 0.3729491716244631 0.25
0.5074107439531079 0.25 0.375
0.5 0.25 0.3721264787327022
0.625 0.2852574135647438 0.375
0.625 0.375 0.285791038886522
0.7157340954320375 0.375 0.375
0.25 0.5 0.3737250628217819
0.25 0.4972749848620898 0.375
0.2490284560779498 0.5 0.375
0.293793552312943 0.375 0.375
0.25 0.4972749848620898 0.375
0.25 0.5 0.3737250628217819
0.375 0.375 0.2936723297513492
0.293793552312943 0.375 0.375
0.25 0.5 0.3737250628217819
0.375 0.375 0.2936723297513492
0.25 0.5 0.3737250628217819
0.3735891315689819 0.5 0.25
0.375 0.375 0.2936723297513492
0.3735891315689819 0.5 0.25
0.375 0.496975655720352 0.25
0.4956618454853561 0.375 0.25
0.375 0.375 0.2936723297513492
0.375 0.496975655720352 0.25
0.5052395357952149 0.375 0.25
0.625 0.4733730195578076 0.25
0.625 0.375 0.285791038886522
0.6375218885127196 0.5 0.25
0.75 0.5 0.360875991585902
0.75 0.4690533868684091 0.375
0.625 0.4733730195578076 0.25
0.6375218885127196 0.5 0.25
0.75 0.4690533868684091 0.375
0.625 0.4733730195578076 0.25
0.75 0.4690533868684091 0.375
0.7157340954320375 0.375 0.375
0.625 0.4733730195578076 0.25
0.7157340954320375 0.375 0.375
0.625 0.375 0.285791038886522
0.75 0.4690533868684091 0.375
0.75 0.5 0.360875991585902
0.7606357527490282 0.5 0.375
0.25 0.5 0.3737250628217819
0.2490284560779498 0.5 0.375
0.25 0.503328948673371 0.375
0.375 0.625 0.2849167882475719
0.25 0.503328948673371 0.375
0.285476979792095 0.625 0.375
0.375 0.5037572679930461 0.25
0.25 0.503328948673371 0.375
0.375 0.625 0.2849167882475719
0.375 0.5037572679930461 0.25
0.25 0.5 0.3737250628217819
0.25 0.503328948673371 0.375
0.375 0.5037572679930461 0.25
0.3735891315689819 0.5 0.25
0.25 0.5 0.3737250628217819
0.375 0.5037572679930461 0.25
0.375 0.625 0.2849167882475719
0.4690445228780069 0.625 0.25
0.625 0.5318619375469958 0.25
0.5360340322847111 0.625 0.25
0.625 0.625 0.2786760431284502
0.625 0.5318619375469958 0.25
0.625 0.625 0.2786760431284502
0.7214096058298134 0.625 0.375
0.6375218885127196 0.5 0.25
0.625 0.5318619375469958 0.25
0.7214096058298134 0.625 0.375
0.6375218885127196 0.5 0.25
0.7214096058298134 0.625 0.375
0.75 0.5352630571760008 0.375
0.6375218885127196 0.5 0.25
0.75 0.5352630571760008 0.375
0.75 0.5 0.360875991585902
0.7606357527490282 0.5 0.375
0.75 0.5 0.360875991585902
0.75 0.5352630571760008 0.375
0.375 0.625 0.2849167882475719
0.285476979792095 0.625 0.375
0.375 0.716365526770871 0.375
0.5 0.75 0.3600624000698318
0.375 0.716365526770871 0.375
0.4673239837995083 0.75 0.375
0.5 0.6396635295783298 0.25
0.375 0.716365526770871 0.375
0.5 0.75 0.3600624000698318
0.5 0.6396635295783298 0.25
0.375 0.625 0.2849167882475719
0.375 0.716365526770871 0.375
0.5 0.6396635295783298 0.25
0.4690445228780069 0.625 0.25
0.375 0.625 0.2849167882475719
0.5 0.6396635295783298 0.25
0.5 0.75 0.3600624000698318
0.5365142223825909 0.75 0.375
0.5360340322847111 0.625 0.25
0.5 0.6396635295783298 0.25
0.5365142223825909 0.75 0.375
0.5360340322847111 0.625 0.25
0.5365142223825909 0.75 0.375
0.625 0.7212718830064951 0.375
0.5360340322847111 0.625 0.25
0.625 0.7212718830064951 0.375
0.625 0.625 0.2786760431284502
0.7214096058298134 0.625 0.375
0.625 0.625 0.2786760431284502
0.625 0.7212718830064951 0.375
0.5 0.75 0.3600624000698318
0.4673239837995083 0.75 0.375
0.5 0.7611526552481672 0.375
0.5365142223825909 0.75 0.375
0.5 0.75 0.3600624000698318
0.5 0.7611526552481672 0.375
0.375 0.25 0.4960077772887831
0.375 0.2485818078669243 0.5
0.3731358464651748 0.25 0.5
0.375 0.25 0.4960077772887831
0.49392702569972 0.25 0.375
0.5 0.2478125724659591 0.375
0.375 0.25 0.4960077772887831
0.5 0.2478125724659591 0.375
0.375 0.2485818078669243 0.5
0.375 0.2485818078669243 0.5
0.5 0.2478125724659591 0.375
0.5 0.2085529860554442 0.5
0.5074107439531079 0.25 0.375
0.625 0.25 0.470249352411889
0.625 0.2394915816564651 0.5
0.5074107439531079 0.25 0.375
0.625 0.2394915816564651 0.5
0.5 0.2478125724659591 0.375
0.5 0.2478125724659591 0.375
0.625 0.2394915816564651 0.5
0.5 0.2085529860554442 0.5
0.625 0.2394915816564651 0.5
0.625 0.25 0.470249352411889
0.6389937241915499 0.25 0.5
0.25 0.375 0.4952147645239274
0.25 0.3727330633980714 0.5
0.248269799563358 0.375 0.5
0.3731358464651748 0.25 0.5
0.25 0.3727330633980714 0.5
0.25 0.375 0.4952147645239274
0.375 0.25 0.4960077772887831
0.3731358464651748 0.25 0.5
0.25 0.375 0.4952147645239274
0.375 0.25 0.4960077772887831
0.25 0.375 0.4952147645239274
0.293793552312943 0.375 0.375
0.375 0.25 0.4960077772887831
0.293793552312943 0.375 0.375
0.375 0.2934772382995367 0.375
0.49392702569972 0.25 0.375
0.375 0.25 0.4960077772887831
0.375 0.2934772382995366 0.375
0.5074107439531079 0.25 0.375
0.625 0.2852574135647438 0.375
0.625 0.25 0.470249352411889
0.7157340954320375 0.375 0.375
0.75 0.375 0.46930801221591
0.75 0.3609867530215888 0.5
0.625 0.2852574135647438 0.375
0.7157340954320375 0.375 0.375
0.75 0.3609867530215888 0.5
0.625 0.2852574135647438 0.375
0.75 0.3609867530215888 0.5
0.6389937241915499 0.25 0.5
0.625 0.2852574135647438 0.375
0.6389937241915499 0.25 0.5
0.625 0.25 0.470249352411889
0.75 0.3609867530215888 0.5
0.75 0.375 0.46930801221591
0.7605249286712494 0.375 0.5
0.25 0.4972749848620898 0.375
0.25 0.375 0.4952147645239274
0.248269799563358 0.375 0.5
0.25 0.4972749848620898 0.375
0.248269799563358 0.375 0.5
0.2490284560779498 0.5 0.375
0.2490284560779498 0.5 0.375
0.248269799563358 0.375 0.5
0.2088085850313056 0.5 0.5
0.293793552312943 0.375 0.375
0.25 0.375 0.4952147645239274
0.25 0.4972749848620898 0.375
0.7157340954320375 0.375 0.375
0.75 0.4690533868684091 0.375
0.75 0.375 0.46930801221591
0.75 0.375 0.46930801221591
0.75 0.4690533868684091 0.375
0.7606357527490282 0.5 0.375
0.75 0.375 0.46930801221591
0.7606357527490282 0.5 0.375
0.7605249286712494 0.375 0.5
0.7605249286712494 0.375 0.5
0.7606357527490282 0.5 0.375
0.7959399831902212 0.5 0.5
0.25 0.625 0.4711844674562668
0.25 0.503328948673371 0.375
0.2490284560779498 0.5 0.375
0.25 0.625 0.4711844674562668
0.2490284560779498 0.5 0.375
0.2397789097777702 0.625 0.5
0.2397789097777702 0.625 0.5
0.2490284560779498 0.5 0.375
0.2088085850313056 0.5 0.5
0.25 0.503328948673371 0.375
0.25 0.625 0.4711844674562668
0.285476979792095 0.625 0.375
0.75 0.5352630571760008 0.375
0.7214096058298134 0.625 0.375
0.75 0.625 0.4554427648271913
0.75 0.5352630571760008 0.375
0.75 0.625 0.4554427648271913
0.7647657755822379 0.625 0.5
0.75 0.5352630571760008 0.375
0.7647657755822379 0.625 0.5
0.7606357527490282 0.5 0.375
0.7606357527490282 0.5 0.375
0.7647657755822379 0.625 0.5
0.7959399831902212 0.5 0.5
0.25 0.625 0.4711844674562668
0.2397789097777702 0.625 0.5
0.25 0.6386285326892289 0.5
0.375 0.75 0.4689924310074262
0.25 0.6386285326892289 0.5
0.3610938001900191 0.75 0.5
0.375 0.716365526770871 0.375
0.25 0.6386285326892289 0.5
0.375 0.75 0.4689924310074262
0.375 0.716365526770871 0.375
0.25 0.625 0.4711844674562668
0.25 0.6386285326892289 0.5
0.375 0.716365526770871 0.375
0.285476979792095 0.625 0.375
0.25 0.625 0.4711844674562668
0.375 0.716365526770871 0.375
0.375 0.75 0.4689924310074262
0.4673239837995083 0.75 0.375
0.625 0.7212718830064951 0.375
0.5365142223825909 0.75 0.375
0.625 0.75 0.4566302535056559
0.625 0.7212718830064951 0.375
0.625 0.75 0.4566302535056559
0.6440961528129755 0.75 0.5
0.7214096058298134 0.625 0.375
[...]
CELL_DATA 248
SCALARS c float
LOOKUP_TABLE default
1002003
1002004
1003002
1003003
1003003
1003003
1003004
1003004
1003004
1003005
1004002
1004003
1004003
1004003
1004004
1004004
1004004
1004005
1005003
1005004
2001003
2001004
2002002
2002003
2002003
2002003
2002003
2002004
2002004
2002004
2002004
2002005
2003001
2003002
2003002
2003002
2003002
2003003
2003004
2003005
2003005
2003005
2003005
2003006
2004001
2004002
2004002
2004002
2004002
2004003
2004004
2004005
2004005
2004005
2004005
2004006
2005002
2005003
2005003
2005003
2005003
2005004
2005004
2005004
2005004
2005005
2006003
2006004
3001002
3001003
3001003
3001003
3001004
3001004
3001004
3001005
3002001
3002002
3002002
3002002
3002002
3002003
3002004
3002005
3002005
3002005
3002005
3002006
3003001
3003001
3003001
3003002
3003005
3003006
3003006
3003006
3004001
3004001
3004001
3004002
3004005
3004006
3004006
3004006
3005001
3005002
3005002
3005002
3005002
3005003
3005004
3005005
3005005
3005005
3005005
3005006
3006002
3006003
3006003
3006003
3006004
3006004
3006004
3006005
4001002
4001003
4001003
4001003
4001004
4001004
4001004
4001005
4002001
4002002
4002002
4002002
4002002
4002003
4002004
4002005
4002005
4002005
4002005
4002006
4003001
4003001
4003001
4003002
4003005
4003006
4003006
4003006
4004001
4004001
4004001
4004002
4004005
4004006
4004006
4004006
4005001
4005002
4005002
4005002
4005002
4005003
4005004
4005005
4005005
4005005
4005005
4005006
4006002
4006003
4006003
4006003
4006004
4006004
4006004
4006005
5001003
5001004
5002002
5002003
5002003
5002003
5002003
5002004
5002004
5002004
5002004
5002005
5003001
5003002
5003002
5003002
5003002
5003003
5003004
5003005
5003005
5003005
5003005
5003006
5004001
5004002
5004002
5004002
5004002
5004003
5004004
5004005
5004005
5004005
5004005
5004006
5005002
5005003
5005003
5005003
5005003
5005004
5005004
5005004
5005004
5005005
5006003
5006004
6002003
6002004
6003002
6003003
6003003
6003003
6003004
6003004
6003004
6003005
6004002
6004003
6004003
6004003
6004004
6004004
6004004
6004005
6005003
6005004
SCALARS l float
LOOKUP_TABLE default
0
0
0
0
0
0
0
0
0
0
0
0
0
0
0
0
0
0
0
0
0
0
0
0
0
0
0
0
0
0
0
0
0
0
0
0
0
0
0
0
0
0
0
0
0
0
0
0
0
0
0
0
0
0
0
0
0
0
0
0
0
0
0
0
0
0
0
0
0
0
0
0
0
0
0
0
0
0
0
0
0
0
0
0
0
0
0
0
0
0
0
0
0
0
0
0
0
0
0
0
0
0
0
0
0
0
0
0
0
0
0
0
0
0
0
0
0
0
0
0
0
0
0
0
0
0
0
0
0
0
0
0
0
0
0
0
0
0
0
0
0
0
0
0
0
0
0
0
0
0
0
0
0
0
0
0
0
0
0
0
0
0
0
0
0
0
0
0
0
0
0
0
0
0
0
0
0
0
0
0
0
0
0
0
0
0
0
0
0
0
0
0
0
0
0
0
0
0
0
0
0
0
0
0
0
0
0
0
0
0
0
0
0
0
0
0
0
0
0
0
0
0
0
0
0
0
0
0
0
0
0
0
0
0
0
0
0
0
0
0
0
0
0
0
0
0
0
0
SCALARS cl float
LOOKUP_TABLE default
0
0
0
0
0
0
0
0
0
0
0
0
0
0
0
0
0
0
0
0
0
0
0
0
0
0
0
0
0
0
0
0
0
0
0
0
0
0
0
0
0
0
0
0
0
0
0
0
0
0
0
0
0
0
0
0
0
0
0
0
0
0
0
0
0
0
0
0
0
0
0
0
0
0
0
0
0
0
0
0
0
0
0
0
0
0
0
0
0
0
0
0
0
0
0
0
0
0
0
0
0
0
0
0
0
0
0
0
0
0
0
0
0
0
0
0
0
0
0
0
0
0
0
0
0
0
0
0
0
0
0
0
0
0
0
0
0
0
0
0
0
0
0
0
0
0
0
0
0
0
0
0
0
0
0
0
0
0
0
0
0
0
0
0
0
0
0
0
0
0
0
0
0
0
0
0
0
0
0
0
0
0
0
0
0
0
0
0
0
0
0
0
0
0
0
0
0
0
0
0
0
0
0
0
0
0
0
0
0
0
0
0
0
0
0
0
0
0
0
0
0
0
0
0
0
0
0
0
0
0
0
0
0
0
0
0
0
0
0
0
0
0
0
0
0
0
0
0
POINT_DATA 744
VECTORS nn float
-0.02035949562713497 -0.2898562045523796 -0.6838029246675146
-0.02038190008287497 -0.2926881499283294 -0.6847934250921287
-0.02961867746202154 -0.2911673614659424 -0.685483722611791
-0.02038190008287496 -0.2926881499283294 -0.6847934250921287
-0.02035949562713497 -0.2898562045523796 -0.6838029246675146
-0.0082203490632292 -0.2913969881359723 -0.6855374922862051
-0.2987667535821257 -0.02453597352866166 -0.67824852313428
-0.2996990056253419 -0.03072693894871401 -0.6795006159408491
-0.3006019308516444 -0.02453550819194224 -0.6789254579749249
-0.02961867746202154 -0.2911673614659424 -0.685483722611791
-0.2996990056253419 -0.03072693894871402 -0.6795006159408491
-0.2987667535821257 -0.02453597352866166 -0.67824852313428
-0.02961867746202154 -0.2911673614659424 -0.685483722611791
-0.2987667535821257 -0.02453597352866166 -0.67824852313428
-0.02035949562713497 -0.2898562045523796 -0.6838029246675146
-0.02035949562713497 -0.2898562045523796 -0.6838029246675146
-0.2987667535821257 -0.02453597352866166 -0.67824852313428
-0.01730350793312154 -0.02241663697395947 -0.5613244464461866
0.2757995607411751 -0.07801053556685593 -0.665839668176387
-0.008220349063229196 -0.2913969881359723 -0.6855374922862051
-0.02035949562713497 -0.2898562045523796 -0.6838029246675146
0.2757995607411751 -0.07801053556685593 -0.665839668176387
-0.02035949562713497 -0.2898562045523796 -0.6838029246675146
0.2676895586880399 -0.02155783662454341 -0.6530714159729735
0.2676895586880399 -0.02155783662454341 -0.6530714159729735
-0.02035949562713497 -0.2898562045523796 -0.6838029246675146
-0.01730350793312154 -0.02241663697395947 -0.5613244464461866
0.2757995607411751 -0.07801053556685593 -0.665839668176387
0.2676895586880399 -0.02155783662454341 -0.6530714159729735
0.2865984089118298 -0.02122266635186393 -0.6594670090315694
-0.2987667535821257 -0.02453597352866166 -0.67824852313428
-0.3006019308516443 -0.02453550819194224 -0.6789254579749249
-0.2999777777412814 -0.01588458632965679 -0.6794608426686745
-0.2999777777412814 -0.01588458632965677 -0.6794608426686745
-0.08539291692727592 0.2690968031188194 -0.6627867690679339
-0.01562599914749393 0.259798887540111 -0.6483957066511055
-0.2999777777412814 -0.01588458632965677 -0.6794608426686745
-0.01562599914749393 0.259798887540111 -0.6483957066511055
-0.2987667535821257 -0.02453597352866166 -0.67824852313428
-0.2987667535821257 -0.02453597352866166 -0.67824852313428
-0.01562599914749393 0.259798887540111 -0.6483957066511055
-0.01730350793312154 -0.02241663697395947 -0.5613244464461866
0.07049093518761786 0.2722997126982337 -0.6616208438385507
0.2786556521579375 0.0544064216203349 -0.6639897719754311
0.2676895586880399 -0.02155783662454341 -0.6530714159729735
0.07049093518761786 0.2722997126982337 -0.6616208438385507
0.2676895586880399 -0.02155783662454341 -0.6530714159729735
-0.01562599914749393 0.259798887540111 -0.6483957066511055
-0.01562599914749393 0.259798887540111 -0.6483957066511055
0.2676895586880399 -0.02155783662454341 -0.6530714159729735
-0.01730350793312154 -0.02241663697395947 -0.5613244464461866
0.2865984089118298 -0.02122266635186393 -0.6594670090315695
0.2676895586880399 -0.02155783662454341 -0.6530714159729735
0.2786556521579375 0.0544064216203349 -0.6639897719754311
-0.01562599914749393 0.259798887540111 -0.6483957066511055
-0.08539291692727591 0.2690968031188194 -0.6627867690679338
-0.01524914840479546 0.2838482288694902 -0.6554618943811913
0.07049093518761786 0.2722997126982337 -0.6616208438385507
-0.01562599914749393 0.259798887540111 -0.6483957066511055
-0.01524914840479546 0.2838482288694902 -0.6554618943811913
-0.02446171279518521 -0.6784738339931005 -0.2989020137574905
-0.02452699498599799 -0.6770379201325238 -0.2950918137314405
-0.03719217722717634 -0.6796474403080065 -0.2968137671125093
-0.02452699498599799 -0.6770379201325238 -0.2950918137314405
-0.02446171279518521 -0.6784738339931005 -0.2989020137574905
-0.006895847001580004 -0.6792176755548255 -0.2972323911449092
-0.2869736449652939 -0.2795877832295282 -0.4589323445338979
-0.2857205601227055 -0.4594553521572544 -0.2833167875430385
-0.4587159757099913 -0.2804437520672033 -0.2851365774539608
-0.03719217722717633 -0.6796474403080065 -0.2968137671125093
-0.2857205601227055 -0.4594553521572543 -0.2833167875430385
-0.2869736449652939 -0.2795877832295282 -0.4589323445338979
-0.02446171279518521 -0.6784738339931005 -0.2989020137574905
-0.03719217722717633 -0.6796474403080065 -0.2968137671125093
-0.2869736449652939 -0.2795877832295282 -0.4589323445338979
-0.02446171279518521 -0.6784738339931005 -0.2989020137574905
-0.2869736449652939 -0.2795877832295282 -0.4589323445338979
-0.02961867746202154 -0.2911673614659424 -0.685483722611791
-0.02446171279518521 -0.6784738339931005 -0.2989020137574905
-0.02961867746202154 -0.2911673614659424 -0.685483722611791
-0.02038190008287497 -0.2926881499283294 -0.6847934250921287
-0.0082203490632292 -0.2913969881359723 -0.6855374922862051
0.2686647216281852 -0.2797223782976536 -0.4868129038413895
0.2712619001097109 -0.4841445671542541 -0.2834532444198417
-0.02038190008287496 -0.2926881499283294 -0.6847934250921287
-0.0082203490632292 -0.2913969881359723 -0.6855374922862051
0.2712619001097109 -0.4841445671542541 -0.2834532444198417
-0.02038190008287496 -0.2926881499283294 -0.6847934250921287
0.2712619001097109 -0.4841445671542541 -0.2834532444198417
-0.006895847001580011 -0.6792176755548255 -0.2972323911449092
-0.02038190008287496 -0.2926881499283294 -0.6847934250921287
-0.006895847001580011 -0.6792176755548255 -0.2972323911449092
-0.02446171279518521 -0.6784738339931005 -0.2989020137574905
0.2712619001097109 -0.4841445671542541 -0.2834532444198417
0.2686647216281852 -0.2797223782976536 -0.4868129038413895
0.4837557604083687 -0.2804252280469199 -0.2785508684233875
-0.6801659833109139 -0.02379645142493032 -0.2988526554743923
-0.6806647588595384 -0.0294125604752868 -0.298016107707158
-0.6795655148155646 -0.02378998588106537 -0.2971669813468854
-0.4587159757099913 -0.2804437520672033 -0.2851365774539608
-0.6806647588595384 -0.02941256047528681 -0.298016107707158
-0.6801659833109139 -0.02379645142493032 -0.2988526554743923
-0.2869736449652939 -0.2795877832295282 -0.4589323445338979
-0.4587159757099913 -0.2804437520672033 -0.2851365774539608
-0.6801659833109139 -0.02379645142493032 -0.2988526554743923
-0.2869736449652939 -0.2795877832295282 -0.4589323445338979
-0.6801659833109139 -0.02379645142493032 -0.2988526554743923
-0.3006019308516444 -0.02453550819194224 -0.6789254579749249
-0.2869736449652939 -0.2795877832295282 -0.4589323445338979
-0.3006019308516444 -0.02453550819194224 -0.6789254579749249
-0.2996990056253419 -0.03072693894871401 -0.6795006159408491
-0.02961867746202154 -0.2911673614659424 -0.685483722611791
-0.2869736449652939 -0.2795877832295282 -0.4589323445338979
-0.2996990056253419 -0.03072693894871402 -0.6795006159408491
-0.008220349063229196 -0.2913969881359723 -0.6855374922862051
0.2757995607411751 -0.07801053556685593 -0.665839668176387
0.2686647216281852 -0.2797223782976536 -0.4868129038413895
0.2865984089118298 -0.02122266635186393 -0.6594670090315694
0.6464773328999588 -0.01627209827252166 -0.2915637161351338
0.6531612529874976 -0.08314579327977568 -0.2808142576023485
0.2757995607411751 -0.07801053556685593 -0.665839668176387
0.2865984089118298 -0.02122266635186393 -0.6594670090315694
0.6531612529874976 -0.08314579327977568 -0.2808142576023485
0.2757995607411751 -0.07801053556685593 -0.665839668176387
0.6531612529874976 -0.08314579327977568 -0.2808142576023485
0.4837557604083688 -0.2804252280469199 -0.2785508684233875
0.2757995607411751 -0.07801053556685593 -0.665839668176387
0.4837557604083688 -0.2804252280469199 -0.2785508684233875
0.2686647216281852 -0.2797223782976536 -0.4868129038413895
0.6531612529874977 -0.08314579327977567 -0.2808142576023485
0.6464773328999588 -0.01627209827252166 -0.2915637161351338
0.639870256082088 -0.01602540153463577 -0.2697951569160527
-0.6801659833109139 -0.02379645142493032 -0.2988526554743923
-0.6795655148155646 -0.02378998588106537 -0.2971669813468854
-0.6806489829571362 -0.01604498747598303 -0.2981463837027212
-0.2898723185419992 0.2625036582597782 -0.4881150800197881
-0.6806489829571362 -0.01604498747598303 -0.2981463837027212
-0.4873501105078835 0.2651535610935006 -0.2833348621123061
-0.2999777777412814 -0.01588458632965679 -0.6794608426686745
-0.6806489829571362 -0.01604498747598303 -0.2981463837027212
-0.2898723185419992 0.2625036582597782 -0.4881150800197881
-0.2999777777412814 -0.01588458632965679 -0.6794608426686745
-0.6801659833109139 -0.02379645142493032 -0.2988526554743923
-0.6806489829571362 -0.01604498747598303 -0.2981463837027212
-0.2999777777412814 -0.01588458632965679 -0.6794608426686745
-0.3006019308516443 -0.02453550819194224 -0.6789254579749249
-0.6801659833109139 -0.02379645142493032 -0.2988526554743923
-0.2999777777412814 -0.01588458632965677 -0.6794608426686745
-0.2898723185419992 0.2625036582597782 -0.4881150800197881
-0.08539291692727592 0.2690968031188194 -0.6627867690679339
0.2786556521579375 0.0544064216203349 -0.6639897719754311
0.07049093518761786 0.2722997126982337 -0.6616208438385507
0.2760058686558226 0.2707104674625873 -0.5082557737389281
0.2786556521579375 0.0544064216203349 -0.6639897719754311
0.2760058686558226 0.2707104674625873 -0.5082557737389281
0.506112392857988 0.2732275485138985 -0.2740435157492476
0.2865984089118298 -0.02122266635186393 -0.6594670090315695
0.2786556521579375 0.0544064216203349 -0.6639897719754311
0.506112392857988 0.2732275485138985 -0.2740435157492476
0.2865984089118298 -0.02122266635186393 -0.6594670090315695
0.506112392857988 0.2732275485138985 -0.2740435157492476
0.653260949463418 0.06740164780689809 -0.2808610914413425
0.2865984089118298 -0.02122266635186393 -0.6594670090315695
0.653260949463418 0.06740164780689809 -0.2808610914413425
0.6464773328999588 -0.01627209827252166 -0.2915637161351338
0.639870256082088 -0.01602540153463577 -0.2697951569160527
0.6464773328999588 -0.01627209827252166 -0.2915637161351338
0.653260949463418 0.06740164780689809 -0.2808610914413425
-0.2898723185419992 0.2625036582597782 -0.4881150800197881
-0.4873501105078835 0.2651535610935006 -0.2833348621123061
-0.2850673998163037 0.4895951575877207 -0.2781977675931141
-0.01235187204640861 0.654367696491003 -0.2921373624660394
-0.2850673998163037 0.4895951575877207 -0.2781977675931141
-0.08502958260893806 0.6608000476439149 -0.2807638363927372
-0.01524914840479546 0.2838482288694902 -0.6554618943811913
-0.2850673998163037 0.4895951575877207 -0.2781977675931141
-0.01235187204640861 0.654367696491003 -0.2921373624660394
-0.01524914840479546 0.2838482288694902 -0.6554618943811913
-0.2898723185419992 0.2625036582597782 -0.4881150800197881
-0.2850673998163037 0.4895951575877207 -0.2781977675931141
-0.01524914840479546 0.2838482288694902 -0.6554618943811913
-0.08539291692727591 0.2690968031188194 -0.6627867690679338
-0.2898723185419992 0.2625036582597782 -0.4881150800197881
-0.01524914840479546 0.2838482288694902 -0.6554618943811913
-0.01235187204640861 0.654367696491003 -0.2921373624660394
0.07361591952447405 0.6601812656235229 -0.2808739391930885
0.07049093518761786 0.2722997126982337 -0.6616208438385507
-0.01524914840479546 0.2838482288694902 -0.6554618943811913
0.07361591952447405 0.6601812656235229 -0.2808739391930885
0.07049093518761786 0.2722997126982337 -0.6616208438385507
0.07361591952447405 0.6601812656235229 -0.2808739391930885
0.2750800799974809 0.5084519146677557 -0.2740063646125999
0.07049093518761786 0.2722997126982337 -0.6616208438385507
0.2750800799974809 0.5084519146677557 -0.2740063646125999
0.2760058686558226 0.2707104674625873 -0.5082557737389281
0.506112392857988 0.2732275485138985 -0.2740435157492476
0.2760058686558226 0.2707104674625873 -0.5082557737389281
0.2750800799974809 0.5084519146677559 -0.2740063646125999
-0.01235187204640861 0.654367696491003 -0.2921373624660394
-0.08502958260893806 0.6608000476439149 -0.2807638363927372
-0.01234350577863688 0.6461216629520459 -0.269876622269751
0.07361591952447405 0.6601812656235229 -0.2808739391930885
-0.01235187204640861 0.654367696491003 -0.2921373624660394
-0.01234350577863688 0.6461216629520459 -0.2698766222697511
-0.2977447758742079 -0.6812251401306799 -0.0299644527841885
-0.2965476024096202 -0.6795522235607682 -0.02162075124298147
-0.298995456299369 -0.680468045952399 -0.02161240318359026
-0.2977447758742079 -0.6812251401306799 -0.0299644527841885
-0.03719217722717634 -0.6796474403080065 -0.2968137671125093
-0.02452699498599799 -0.6770379201325238 -0.2950918137314405
-0.2977447758742079 -0.6812251401306799 -0.0299644527841885
-0.02452699498599799 -0.6770379201325238 -0.2950918137314405
-0.2965476024096202 -0.6795522235607682 -0.02162075124298147
-0.2965476024096202 -0.6795522235607682 -0.02162075124298147
-0.02452699498599799 -0.6770379201325238 -0.2950918137314405
-0.02365005372998259 -0.5566872019994878 -0.01895255097270167
-0.006895847001580004 -0.6792176755548255 -0.2972323911449092
0.2801038214313072 -0.6544316498231086 -0.08435465355578081
0.271158772991114 -0.6403844432446413 -0.01946679599181342
-0.006895847001580004 -0.6792176755548255 -0.2972323911449092
0.271158772991114 -0.6403844432446413 -0.01946679599181342
-0.02452699498599799 -0.6770379201325238 -0.2950918137314405
-0.02452699498599799 -0.6770379201325238 -0.2950918137314405
0.271158772991114 -0.6403844432446413 -0.01946679599181342
-0.02365005372998259 -0.5566872019994878 -0.01895255097270167
0.271158772991114 -0.6403844432446413 -0.01946679599181342
0.2801038214313072 -0.6544316498231086 -0.08435465355578081
0.2922071326261041 -0.6471452404300558 -0.01948468504627858
-0.6782603240744965 -0.2974205608952001 -0.03422733190797789
-0.6773395256732788 -0.2991323039232349 -0.02416138637205007
-0.6762618994147808 -0.2961077029769344 -0.02421917866183297
-0.2989954562993689 -0.6804680459523988 -0.02161240318359026
-0.6773395256732789 -0.2991323039232349 -0.02416138637205007
-0.6782603240744965 -0.2974205608952001 -0.03422733190797789
-0.2977447758742079 -0.6812251401306799 -0.0299644527841885
-0.2989954562993689 -0.6804680459523988 -0.02161240318359026
-0.6782603240744965 -0.2974205608952001 -0.03422733190797789
-0.2977447758742079 -0.6812251401306799 -0.0299644527841885
-0.6782603240744965 -0.2974205608952001 -0.03422733190797789
-0.4587159757099913 -0.2804437520672033 -0.2851365774539608
-0.2977447758742079 -0.6812251401306799 -0.0299644527841885
-0.4587159757099913 -0.2804437520672033 -0.2851365774539608
-0.2857205601227055 -0.4594553521572544 -0.2833167875430385
-0.03719217722717633 -0.6796474403080065 -0.2968137671125093
-0.2977447758742079 -0.6812251401306799 -0.0299644527841885
-0.2857205601227055 -0.4594553521572543 -0.2833167875430385
-0.006895847001580011 -0.6792176755548255 -0.2972323911449092
0.2712619001097109 -0.4841445671542541 -0.2834532444198417
0.2801038214313072 -0.6544316498231086 -0.08435465355578081
0.4837557604083687 -0.2804252280469199 -0.2785508684233875
0.6533554052687668 -0.2824087914943029 -0.08312944981408003
0.6469947287247368 -0.2923227249483168 -0.01767496195734534
0.2712619001097109 -0.4841445671542541 -0.2834532444198417
0.4837557604083687 -0.2804252280469199 -0.2785508684233875
0.6469947287247368 -0.2923227249483168 -0.01767496195734534
0.2712619001097109 -0.4841445671542541 -0.2834532444198417
0.6469947287247368 -0.2923227249483168 -0.01767496195734534
0.2922071326261041 -0.6471452404300558 -0.01948468504627858
0.2712619001097109 -0.4841445671542541 -0.2834532444198417
0.2922071326261041 -0.6471452404300558 -0.01948468504627858
0.2801038214313072 -0.6544316498231086 -0.08435465355578081
0.6469947287247368 -0.2923227249483167 -0.01767496195734534
0.6533554052687668 -0.2824087914943029 -0.08312944981408003
0.6402241801118014 -0.2712555049601696 -0.01742855601172659
-0.6806647588595384 -0.0294125604752868 -0.298016107707158
-0.6782603240744965 -0.2974205608952001 -0.03422733190797789
-0.6762618994147808 -0.2961077029769344 -0.02421917866183297
-0.6806647588595384 -0.0294125604752868 -0.298016107707158
-0.6762618994147808 -0.2961077029769344 -0.02421917866183297
-0.6795655148155646 -0.02378998588106537 -0.2971669813468854
-0.6795655148155646 -0.02378998588106537 -0.2971669813468854
-0.6762618994147808 -0.2961077029769344 -0.02421917866183297
-0.5581067549119563 -0.01957331428801514 -0.02458312079345478
-0.4587159757099913 -0.2804437520672033 -0.2851365774539608
-0.6782603240744965 -0.2974205608952001 -0.03422733190797789
-0.6806647588595384 -0.02941256047528681 -0.298016107707158
0.4837557604083688 -0.2804252280469199 -0.2785508684233875
0.6531612529874976 -0.08314579327977568 -0.2808142576023485
0.6533554052687668 -0.2824087914943029 -0.08312944981408003
0.6533554052687668 -0.2824087914943029 -0.08312944981408003
0.6531612529874977 -0.08314579327977567 -0.2808142576023485