# vtk DataFile Version 2.0
Interface from marching cubes
ASCII
DATASET POLYDATA
POINTS 744 float
0.5 0.375 0.2440844175432298
0.5 0.3673843596397748 0.25
0.4852016829119986 0.375 0.25
0.5 0.3673843596397748 0.25
0.5 0.375 0.2440844175432298
0.5198320726917621 0.375 0.25
0.375 0.5 0.2422139373115525
0.375 0.4811165673925994 0.25
0.3650940292555339 0.5 0.25
0.25 0.5 0.3660053733300324
0.25 0.4828517200952531 0.375
0.242986938470496 0.5 0.375
0.4852016829119986 0.375 0.25
0.375 0.4811165673925994 0.25
0.375 0.5 0.2422139373115525
0.4852016829119986 0.375 0.25
0.375 0.5 0.2422139373115525
0.5 0.375 0.2440844175432298
0.5 0.375 0.2440844175432298
0.375 0.5 0.2422139373115525
0.5 0.5 0.2022012267045278
0.625 0.4663348286840526 0.25
0.5198320726917621 0.375 0.25
0.5 0.375 0.2440844175432298
0.625 0.4663348286840526 0.25
0.5 0.375 0.2440844175432298
0.625 0.5 0.2385566072017102
0.625 0.5 0.2385566072017102
0.5 0.375 0.2440844175432298
0.5 0.5 0.2022012267045278
0.625 0.4663348286840526 0.25
0.625 0.5 0.2385566072017102
0.6393584337682565 0.5 0.25
0.375 0.5 0.2422139373115525
0.3650940292555339 0.5 0.25
0.375 0.5263396567335793 0.25
0.375 0.5263396567335793 0.25
0.4608333843730575 0.625 0.25
0.5 0.625 0.2368360264310758
0.375 0.5263396567335793 0.25
0.5 0.625 0.2368360264310758
0.375 0.5 0.2422139373115525
0.375 0.5 0.2422139373115525
0.5 0.625 0.2368360264310758
0.5 0.5 0.2022012267045278
0.5370113129912641 0.625 0.25
0.625 0.5332902364876788 0.25
0.625 0.5 0.2385566072017102
0.5370113129912641 0.625 0.25
0.625 0.5 0.2385566072017102
0.5 0.625 0.2368360264310758
0.5 0.625 0.2368360264310758
0.625 0.5 0.2385566072017102
0.5 0.5 0.2022012267045278
0.6393584337682565 0.5 0.25
0.625 0.5 0.2385566072017102
0.625 0.5332902364876788 0.25
0.5 0.625 0.2368360264310758
0.4608333843730575 0.625 0.25
0.5 0.6413919692629991 0.25
0.5370113129912641 0.625 0.25
0.5 0.625 0.2368360264310758
0.5 0.6413919692629991 0.25
0.5 0.25 0.3671018602680802
0.5 0.2438498116269 0.375
0.4847354136476804 0.25 0.375
0.5 0.2438498116269 0.375
0.5 0.25 0.3671018602680802
0.5210064053271818 0.25 0.375
0.375 0.375 0.2952858113434615
0.375 0.2953889787963933 0.375
0.2955231442803153 0.375 0.375
0.4847354136476804 0.25 0.375
0.375 0.2953889787963933 0.375
0.375 0.375 0.2952858113434615
0.5 0.25 0.3671018602680802
0.4847354136476804 0.25 0.375
0.375 0.375 0.2952858113434615
0.5 0.25 0.3671018602680802
0.375 0.375 0.2952858113434615
0.4852016829119986 0.375 0.25
0.5 0.25 0.3671018602680802
0.4852016829119986 0.375 0.25
0.5 0.3673843596397748 0.25
0.5198320726917621 0.375 0.25
0.625 0.375 0.2827810396880447
0.625 0.2820625314225257 0.375
0.5 0.3673843596397748 0.25
0.5198320726917621 0.375 0.25
0.625 0.2820625314225257 0.375
0.5 0.3673843596397748 0.25
0.625 0.2820625314225257 0.375
0.5210064053271818 0.25 0.375
0.5 0.3673843596397748 0.25
0.5210064053271818 0.25 0.375
0.5 0.25 0.3671018602680802
0.625 0.2820625314225257 0.375
0.625 0.375 0.2827810396880447
0.7135769481748796 0.375 0.375
0.2955231442803153 0.375 0.375
0.25 0.4828517200952531 0.375
0.25 0.5 0.3660053733300324
0.375 0.375 0.2952858113434615
0.2955231442803153 0.375 0.375
0.25 0.5 0.3660053733300324
0.375 0.375 0.2952858113434615
0.25 0.5 0.3660053733300324
0.3650940292555339 0.5 0.25
0.375 0.375 0.2952858113434615
0.3650940292555339 0.5 0.25
0.375 0.4811165673925994 0.25
0.4852016829119986 0.375 0.25
0.375 0.375 0.2952858113434615
0.375 0.4811165673925994 0.25
0.5198320726917621 0.375 0.25
0.625 0.4663348286840526 0.25
0.625 0.375 0.2827810396880447
0.6393584337682565 0.5 0.25
0.75 0.5 0.3663341225887273
0.75 0.4806727158760365 0.375
0.625 0.4663348286840526 0.25
0.6393584337682565 0.5 0.25
0.75 0.4806727158760365 0.375
0.625 0.4663348286840526 0.25
0.75 0.4806727158760365 0.375
0.7135769481748796 0.375 0.375
0.625 0.4663348286840526 0.25
0.7135769481748796 0.375 0.375
0.625 0.375 0.2827810396880447
0.75 0.4806727158760365 0.375
0.75 0.5 0.3663341225887273
0.7565685796988665 0.5 0.375
0.25 0.5 0.3660053733300324
0.242986938470496 0.5 0.375
0.25 0.5236336973269884 0.375
0.375 0.625 0.28090073989876
0.25 0.5236336973269884 0.375
0.2816289691801525 0.625 0.375
0.375 0.5263396567335793 0.25
0.25 0.5236336973269884 0.375
0.375 0.625 0.28090073989876
0.375 0.5263396567335793 0.25
0.25 0.5 0.3660053733300324
0.25 0.5236336973269884 0.375
0.375 0.5263396567335793 0.25
0.3650940292555339 0.5 0.25
0.25 0.5 0.3660053733300324
0.375 0.5263396567335793 0.25
0.375 0.625 0.28090073989876
0.4608333843730575 0.625 0.25
0.625 0.5332902364876788 0.25
0.5370113129912641 0.625 0.25
0.625 0.625 0.2830903420945186
0.625 0.5332902364876788 0.25
0.625 0.625 0.2830903420945186
0.7164693806527945 0.625 0.375
0.6393584337682565 0.5 0.25
0.625 0.5332902364876788 0.25
0.7164693806527945 0.625 0.375
0.6393584337682565 0.5 0.25
0.7164693806527945 0.625 0.375
0.75 0.521234629444856 0.375
0.6393584337682565 0.5 0.25
0.75 0.521234629444856 0.375
0.75 0.5 0.3663341225887273
0.7565685796988665 0.5 0.375
0.75 0.5 0.3663341225887273
0.75 0.521234629444856 0.375
0.375 0.625 0.28090073989876
0.2816289691801525 0.625 0.375
0.375 0.7143582947321038 0.375
0.5 0.75 0.3656492278051949
0.375 0.7143582947321038 0.375
0.4790575285875556 0.75 0.375
0.5 0.6413919692629991 0.25
0.375 0.7143582947321038 0.375
0.5 0.75 0.3656492278051949
0.5 0.6413919692629991 0.25
0.375 0.625 0.28090073989876
0.375 0.7143582947321038 0.375
0.5 0.6413919692629991 0.25
0.4608333843730575 0.625 0.25
0.375 0.625 0.28090073989876
0.5 0.6413919692629991 0.25
0.5 0.75 0.3656492278051949
0.5226118904446703 0.75 0.375
0.5370113129912641 0.625 0.25
0.5 0.6413919692629991 0.25
0.5226118904446703 0.75 0.375
0.5370113129912641 0.625 0.25
0.5226118904446703 0.75 0.375
0.625 0.7164168055981686 0.375
0.5370113129912641 0.625 0.25
0.625 0.7164168055981686 0.375
0.625 0.625 0.2830903420945186
0.7164693806527945 0.625 0.375
0.625 0.625 0.2830903420945186
0.625 0.7164168055981686 0.375
0.5 0.75 0.3656492278051949
0.4790575285875556 0.75 0.375
0.5 0.757052302845993 0.375
0.5226118904446703 0.75 0.375
0.5 0.75 0.3656492278051949
0.5 0.757052302845993 0.375
0.375 0.25 0.4858552087118921
0.375 0.2443715753305813 0.5
0.3677696586317314 0.25 0.5
0.375 0.25 0.4858552087118921
0.4847354136476804 0.25 0.375
0.5 0.2438498116269 0.375
0.375 0.25 0.4858552087118921
0.5 0.2438498116269 0.375
0.375 0.2443715753305813 0.5
0.375 0.2443715753305813 0.5
0.5 0.2438498116269 0.375
0.5 0.2025487293479702 0.5
0.5210064053271818 0.25 0.375
0.625 0.25 0.4628943303983928
0.625 0.2372340253221625 0.5
0.5210064053271818 0.25 0.375
0.625 0.2372340253221625 0.5
0.5 0.2438498116269 0.375
0.5 0.2438498116269 0.375
0.625 0.2372340253221625 0.5
0.5 0.2025487293479702 0.5
0.625 0.2372340253221625 0.5
0.625 0.25 0.4628943303983928
0.6407803128066791 0.25 0.5
0.25 0.375 0.4838488391954024
0.25 0.3666342417034903 0.5
0.2434257935190473 0.375 0.5
0.3677696586317314 0.25 0.5
0.25 0.3666342417034902 0.5
0.25 0.375 0.4838488391954024
0.375 0.25 0.4858552087118921
0.3677696586317314 0.25 0.5
0.25 0.375 0.4838488391954024
0.375 0.25 0.4858552087118921
0.25 0.375 0.4838488391954024
0.2955231442803153 0.375 0.375
0.375 0.25 0.4858552087118921
0.2955231442803153 0.375 0.375
0.375 0.2953889787963933 0.375
0.4847354136476804 0.25 0.375
0.375 0.25 0.4858552087118921
0.375 0.2953889787963933 0.375
0.5210064053271818 0.25 0.375
0.625 0.2820625314225257 0.375
0.625 0.25 0.4628943303983928
0.7135769481748796 0.375 0.375
0.75 0.375 0.4818545554313518
0.75 0.3669019536501018 0.5
0.625 0.2820625314225257 0.375
0.7135769481748796 0.375 0.375
0.75 0.3669019536501018 0.5
0.625 0.2820625314225257 0.375
0.75 0.3669019536501018 0.5
0.6407803128066791 0.25 0.5
0.625 0.2820625314225257 0.375
0.6407803128066791 0.25 0.5
0.625 0.25 0.4628943303983928
0.75 0.3669019536501018 0.5
0.75 0.375 0.4818545554313518
0.7561206528565275 0.375 0.5
0.25 0.4828517200952531 0.375
0.25 0.375 0.4838488391954024
0.2434257935190473 0.375 0.5
0.25 0.4828517200952531 0.375
0.2434257935190473 0.375 0.5
0.242986938470496 0.5 0.375
0.242986938470496 0.5 0.375
0.2434257935190473 0.375 0.5
0.2017642148546789 0.5 0.5
0.2955231442803153 0.375 0.375
0.25 0.375 0.4838488391954024
0.25 0.4828517200952531 0.375
0.7135769481748796 0.375 0.375
0.75 0.4806727158760365 0.375
0.75 0.375 0.4818545554313518
0.75 0.375 0.4818545554313518
0.75 0.4806727158760365 0.375
0.7565685796988665 0.5 0.375
0.75 0.375 0.4818545554313518
0.7565685796988665 0.5 0.375
0.7561206528565275 0.375 0.5
0.7561206528565275 0.375 0.5
0.7565685796988665 0.5 0.375
0.7956078151872628 0.5 0.5
0.25 0.625 0.464070814915388
0.25 0.5236336973269884 0.375
0.242986938470496 0.5 0.375
0.25 0.625 0.464070814915388
0.242986938470496 0.5 0.375
0.2379228258900475 0.625 0.5
0.2379228258900475 0.625 0.5
0.242986938470496 0.5 0.375
0.2017642148546789 0.5 0.5
0.25 0.5236336973269884 0.375
0.25 0.625 0.464070814915388
0.2816289691801525 0.625 0.375
0.75 0.521234629444856 0.375
0.7164693806527945 0.625 0.375
0.75 0.625 0.459968432010283
0.75 0.521234629444856 0.375
0.75 0.625 0.459968432010283
0.764676236709788 0.625 0.5
0.75 0.521234629444856 0.375
0.764676236709788 0.625 0.5
0.7565685796988665 0.5 0.375
0.7565685796988665 0.5 0.375
0.764676236709788 0.625 0.5
0.7956078151872628 0.5 0.5
0.25 0.625 0.464070814915388
0.2379228258900475 0.625 0.5
0.25 0.6399732883176431 0.5
0.375 0.75 0.4825085434353238
0.25 0.6399732883176431 0.5
0.3674115734290035 0.75 0.5
0.375 0.7143582947321038 0.375
0.25 0.6399732883176431 0.5
0.375 0.75 0.4825085434353238
0.375 0.7143582947321038 0.375
0.25 0.625 0.464070814915388
0.25 0.6399732883176431 0.5
0.375 0.7143582947321038 0.375
0.2816289691801525 0.625 0.375
0.25 0.625 0.464070814915388
0.375 0.7143582947321038 0.375
0.375 0.75 0.4825085434353238
0.4790575285875556 0.75 0.375
0.625 0.7164168055981686 0.375
0.5226118904446703 0.75 0.375
0.625 0.75 0.4604214339486609
0.625 0.7164168055981686 0.375
0.625 0.75 0.4604214339486609
0.6442591207851563 0.75 0.5
0.7164693806527945 0.625 0.375
[...]
CELL_DATA 248
SCALARS c float
LOOKUP_TABLE default
1002003
1002004
1003002
2003001
1003003
1003003
1003003
1003004
1003004
1003004
1003005
1004002
1004003
1004003
1004003
1004004
1004004
1004004
1004005
1005003
1005004
2001003
2001004
2002002
2002003
2002003
2002003
2002003
2002004
2002004
2002004
2002004
2002005
2003002
2003002
2003002
2003002
2003003
2003004
2003005
2003005
2003005
2003005
2003006
2004001
2004002
2004002
2004002
2004002
2004003
2004004
2004005
2004005
2004005
2004005
2004006
2005002
2005003
2005003
2005003
2005003
2005004
2005004
2005004
2005004
2005005
2006003
2006004
3001002
3001003
3001003
3001003
3001004
3001004
3001004
3001005
3002001
3002002
3002002
3002002
3002002
3002003
3002004
3002005
3002005
3002005
3002005
3002006
3003001
3003001
3003001
3003002
3003005
3003006
3003006
3003006
3004001
3004001
3004001
3004002
3004005
3004006
3004006
3004006
3005001
3005002
3005002
3005002
3005002
3005003
3005004
3005005
3005005
3005005
3005005
3005006
3006002
3006003
3006003
3006003
3006004
3006004
3006004
3006005
4001002
4001003
4001003
4001003
4001004
4001004
4001004
4001005
4002001
4002002
4002002
4002002
4002002
4002003
4002004
4002005
4002005
4002005
4002005
4002006
4003001
4003001
4003001
4003002
4003005
4003006
4003006
4003006
4004001
4004001
4004001
4004002
4004005
4004006
4004006
4004006
4005001
4005002
4005002
4005002
4005002
4005003
4005004
4005005
4005005
4005005
4005005
4005006
4006002
4006003
4006003
4006003
4006004
4006004
4006004
4006005
5001003
5001004
5002002
5002003
5002003
5002003
5002003
5002004
5002004
5002004
5002004
5002005
5003001
5003002
5003002
5003002
5003002
5003003
5003004
5003005
5003005
5003005
5003005
5003006
5004001
5004002
5004002
5004002
5004002
5004003
5004004
5004005
5004005
5004005
5004005
5004006
5005002
5005003
5005003
5005003
5005003
5005004
5005004
5005004
5005004
5005005
5006003
5006004
6002003
6002004
6003002
6003003
6003003
6003003
6003004
6003004
6003004
6003005
6004002
6004003
6004003
6004003
6004004
6004004
6004004
6004005
6005003
6005004
SCALARS l float
LOOKUP_TABLE default
0
0
0
0
0
0
0
0
0
0
0
0
0
0
0
0
0
0
0
0
0
0
0
0
0
0
0
0
0
0
0
0
0
0
0
0
0
0
0
0
0
0
0
0
0
0
0
0
0
0
0
0
0
0
0
0
0
0
0
0
0
0
0
0
0
0
0
0
0
0
0
0
0
0
0
0
0
0
0
0
0
0
0
0
0
0
0
0
0
0
0
0
0
0
0
0
0
0
0
0
0
0
0
0
0
0
0
0
0
0
0
0
0
0
0
0
0
0
0
0
0
0
0
0
0
0
0
0
0
0
0
0
0
0
0
0
0
0
0
0
0
0
0
0
0
0
0
0
0
0
0
0
0
0
0
0
0
0
0
0
0
0
0
0
0
0
0
0
0
0
0
0
0
0
0
0
0
0
0
0
0
0
0
0
0
0
0
0
0
0
0
0
0
0
0
0
0
0
0
0
0
0
0
0
0
0
0
0
0
0
0
0
0
0
0
0
0
0
0
0
0
0
0
0
0
0
0
0
0
0
0
0
0
0
0
0
0
0
0
0
0
0
0
0
0
0
0
0
SCALARS cl float
LOOKUP_TABLE default
0
0
0
0
0
0
0
0
0
0
0
0
0
0
0
0
0
0
0
0
0
0
0
0
0
0
0
0
0
0
0
0
0
0
0
0
0
0
0
0
0
0
0
0
0
0
0
0
0
0
0
0
0
0
0
0
0
0
0
0
0
0
0
0
0
0
0
0
0
0
0
0
0
0
0
0
0
0
0
0
0
0
0
0
0
0
0
0
0
0
0
0
0
0
0
0
0
0
0
0
0
0
0
0
0
0
0
0
0
0
0
0
0
0
0
0
0
0
0
0
0
0
0
0
0
0
0
0
0
0
0
0
0
0
0
0
0
0
0
0
0
0
0
0
0
0
0
0
0
0
0
0
0
0
0
0
0
0
0
0
0
0
0
0
0
0
0
0
0
0
0
0
0
0
0
0
0
0
0
0
0
0
0
0
0
0
0
0
0
0
0
0
0
0
0
0
0
0
0
0
0
0
0
0
0
0
0
0
0
0
0
0
0
0
0
0
0
0
0
0
0
0
0
0
0
0
0
0
0
0
0
0
0
0
0
0
0
0
0
0
0
0
0
0
0
0
0
0
POINT_DATA 744
VECTORS nn float
-0.04286202910043499 -0.3039832100062659 -0.6421340370374999
-0.04297704113168666 -0.3134050744097291 -0.6457770066329811
-0.07400251058946891 -0.3089616289734701 -0.6481699668964701
-0.04297704113168666 -0.3134050744097291 -0.6457770066329811
-0.04286202910043499 -0.3039832100062659 -0.6421340370374999
0.01023998093442933 -0.3073481373372769 -0.6479926448106537
-0.3048114787923427 -0.05808753612053399 -0.6340601473496081
-0.3110609624741147 -0.09516245594532173 -0.6423452733806434
-0.3173751382652603 -0.05836206044062396 -0.6388654034784922
-0.6466522606664836 -0.05366038687164951 -0.3164791873361607
-0.6503937263956643 -0.08774510486535783 -0.3114234290638545
-0.641917412603517 -0.05305664907508726 -0.3054806072274669
-0.07400251058946891 -0.3089616289734701 -0.6481699668964702
-0.3110609624741147 -0.09516245594532172 -0.6423452733806434
-0.3048114787923427 -0.05808753612053399 -0.6340601473496081
-0.07400251058946891 -0.3089616289734701 -0.6481699668964702
-0.3048114787923427 -0.05808753612053399 -0.6340601473496081
-0.04286202910043499 -0.3039832100062659 -0.6421340370374999
-0.04286202910043499 -0.3039832100062659 -0.6421340370374999
-0.3048114787923427 -0.05808753612053399 -0.6340601473496081
-0.01519822361242512 -0.030986034334358 -0.5275545277339038
0.3132518830209898 -0.08096054337562032 -0.6211789307401591
0.01023998093442933 -0.3073481373372769 -0.6479926448106537
-0.04286202910043499 -0.3039832100062659 -0.6421340370374999
0.3132518830209898 -0.08096054337562032 -0.6211789307401591
-0.04286202910043499 -0.3039832100062659 -0.6421340370374999
0.3060412675898846 -0.004362262835280055 -0.6049110741612757
0.3060412675898846 -0.004362262835280055 -0.6049110741612757
-0.04286202910043499 -0.3039832100062659 -0.6421340370374999
-0.01519822361242512 -0.030986034334358 -0.5275545277339038
0.3132518830209898 -0.08096054337562031 -0.6211789307401591
0.3060412675898846 -0.004362262835280055 -0.6049110741612757
0.3243652272383145 -0.004289295024117775 -0.6107669167982818
-0.3048114787923427 -0.05808753612053399 -0.6340601473496081
-0.3173751382652603 -0.05836206044062396 -0.6388654034784922
-0.3097079916082442 0.01889526973608135 -0.6403329722511956
-0.3097079916082442 0.01889526973608135 -0.6403329722511956
-0.09010496713324748 0.3193258670180232 -0.616042450258245
0.003400617128394822 0.3080644321467422 -0.5997968842103377
-0.3097079916082442 0.01889526973608135 -0.6403329722511956
0.003400617128394822 0.3080644321467422 -0.5997968842103377
-0.3048114787923427 -0.05808753612053399 -0.6340601473496081
-0.3048114787923427 -0.05808753612053399 -0.6340601473496081
0.003400617128394822 0.3080644321467422 -0.5997968842103377
-0.01519822361242512 -0.030986034334358 -0.5275545277339038
0.09277669896423012 0.315677430362963 -0.6149898893371445
0.3151280172302804 0.0767310000820231 -0.6178291223990103
0.3060412675898846 -0.004362262835280055 -0.6049110741612757
0.09277669896423012 0.315677430362963 -0.6149898893371445
0.3060412675898846 -0.004362262835280055 -0.6049110741612757
0.003400617128394822 0.3080644321467422 -0.5997968842103377
0.003400617128394822 0.3080644321467422 -0.5997968842103377
0.3060412675898846 -0.004362262835280055 -0.6049110741612757
-0.01519822361242512 -0.030986034334358 -0.5275545277339038
0.3243652272383144 -0.004289295024117775 -0.6107669167982818
0.3060412675898846 -0.004362262835280055 -0.6049110741612757
0.3151280172302804 0.07673100008202309 -0.6178291223990103
0.003400617128394822 0.3080644321467422 -0.5997968842103377
-0.09010496713324746 0.3193258670180232 -0.6160424502582451
0.002875357462466979 0.3289262740353794 -0.6068982549745329
0.09277669896423013 0.315677430362963 -0.6149898893371444
0.003400617128394822 0.3080644321467422 -0.5997968842103377
0.002875357462466979 0.3289262740353794 -0.6068982549745329
-0.04896728591998745 -0.6433051084138256 -0.3125404824526283
-0.04924914647896467 -0.6397038428516539 -0.302499989903016
-0.08013719333064617 -0.6464687711010954 -0.3075959506663519
-0.04924914647896467 -0.6397038428516539 -0.302499989903016
-0.04896728591998745 -0.6433051084138256 -0.3125404824526283
0.008391481609649989 -0.6443618839138084 -0.3068607264047646
-0.2968582227135628 -0.2972830964187382 -0.445062911713508
-0.2944597976843908 -0.4459704828309102 -0.2965694681411468
-0.4481498976312579 -0.2988128290604482 -0.3008288622520002
-0.08013719333064617 -0.6464687711010954 -0.3075959506663519
-0.2944597976843908 -0.4459704828309102 -0.2965694681411468
-0.2968582227135628 -0.2972830964187382 -0.445062911713508
-0.04896728591998745 -0.6433051084138256 -0.3125404824526283
-0.08013719333064617 -0.6464687711010954 -0.3075959506663519
-0.2968582227135628 -0.2972830964187382 -0.445062911713508
-0.04896728591998745 -0.6433051084138256 -0.3125404824526283
-0.2968582227135628 -0.2972830964187382 -0.445062911713508
-0.07400251058946891 -0.3089616289734701 -0.6481699668964701
-0.04896728591998745 -0.6433051084138256 -0.3125404824526283
-0.07400251058946891 -0.3089616289734701 -0.6481699668964701
-0.04297704113168666 -0.3134050744097291 -0.6457770066329811
0.01023998093442933 -0.3073481373372769 -0.6479926448106537
0.2927230107782312 -0.2801717689572793 -0.4799369466398631
0.2941327816611711 -0.4765045072344749 -0.2833325016989877
-0.04297704113168666 -0.3134050744097291 -0.6457770066329811
0.01023998093442933 -0.3073481373372769 -0.6479926448106537
0.2941327816611711 -0.4765045072344749 -0.2833325016989877
-0.04297704113168666 -0.3134050744097291 -0.6457770066329811
0.2941327816611711 -0.4765045072344749 -0.2833325016989877
0.008391481609649989 -0.6443618839138084 -0.3068607264047646
-0.04297704113168666 -0.3134050744097291 -0.6457770066329811
0.008391481609649989 -0.6443618839138084 -0.3068607264047646
-0.04896728591998745 -0.6433051084138256 -0.3125404824526283
0.2941327816611711 -0.4765045072344749 -0.2833325016989877
0.2927230107782312 -0.2801717689572793 -0.4799369466398631
0.4863967658529574 -0.2717155417233788 -0.2701467332087221
-0.4481498976312578 -0.2988128290604481 -0.3008288622520002
-0.6503937263956643 -0.08774510486535783 -0.3114234290638545
-0.6466522606664836 -0.05366038687164951 -0.3164791873361607
-0.2968582227135628 -0.2972830964187382 -0.445062911713508
-0.4481498976312578 -0.2988128290604481 -0.3008288622520002
-0.6466522606664836 -0.05366038687164951 -0.3164791873361607
-0.2968582227135628 -0.2972830964187382 -0.445062911713508
-0.6466522606664836 -0.05366038687164951 -0.3164791873361607
-0.3173751382652603 -0.05836206044062396 -0.6388654034784922
-0.2968582227135628 -0.2972830964187382 -0.445062911713508
-0.3173751382652603 -0.05836206044062396 -0.6388654034784922
-0.3110609624741147 -0.09516245594532173 -0.6423452733806434
-0.07400251058946891 -0.3089616289734701 -0.6481699668964702
-0.2968582227135628 -0.2972830964187382 -0.445062911713508
-0.3110609624741147 -0.09516245594532172 -0.6423452733806434
0.01023998093442933 -0.3073481373372769 -0.6479926448106537
0.3132518830209898 -0.08096054337562032 -0.6211789307401591
0.2927230107782312 -0.2801717689572793 -0.4799369466398631
0.3243652272383145 -0.004289295024117775 -0.6107669167982818
0.6560756999045515 -0.01427515096147043 -0.3018713915590378
0.6613218889626746 -0.05574542898463362 -0.2944906495899088
0.3132518830209898 -0.08096054337562031 -0.6211789307401591
0.3243652272383145 -0.004289295024117775 -0.6107669167982818
0.6613218889626746 -0.05574542898463362 -0.2944906495899088
0.3132518830209898 -0.08096054337562031 -0.6211789307401591
0.6613218889626746 -0.05574542898463362 -0.2944906495899088
0.4863967658529575 -0.2717155417233788 -0.2701467332087222
0.3132518830209898 -0.08096054337562031 -0.6211789307401591
0.4863967658529575 -0.2717155417233788 -0.2701467332087222
0.2927230107782312 -0.2801717689572793 -0.4799369466398631
0.6613218889626745 -0.05574542898463362 -0.2944906495899087
0.6560756999045515 -0.01427515096147043 -0.3018713915590378
0.651607147684524 -0.01506089411160729 -0.2906295012706427
-0.6466522606664836 -0.05366038687164951 -0.3164791873361607
-0.641917412603517 -0.05305664907508726 -0.3054806072274669
-0.6479220619856675 0.01424431708167301 -0.3088405539608721
-0.2859118044812261 0.3040139099736333 -0.4806702923418087
-0.6479220619856676 0.01424431708167299 -0.3088405539608721
-0.4823874566493366 0.3006642879237488 -0.2806689612180032
-0.3097079916082442 0.01889526973608135 -0.6403329722511956
-0.6479220619856676 0.01424431708167299 -0.3088405539608721
-0.2859118044812261 0.3040139099736333 -0.4806702923418087
-0.3097079916082442 0.01889526973608135 -0.6403329722511956
-0.6466522606664836 -0.05366038687164951 -0.3164791873361607
-0.6479220619856676 0.01424431708167299 -0.3088405539608721
-0.3097079916082442 0.01889526973608135 -0.6403329722511956
-0.3173751382652603 -0.05836206044062396 -0.6388654034784922
-0.6466522606664836 -0.05366038687164951 -0.3164791873361607
-0.3097079916082442 0.01889526973608135 -0.6403329722511956
-0.2859118044812261 0.3040139099736333 -0.4806702923418087
-0.09010496713324748 0.3193258670180232 -0.616042450258245
0.3151280172302804 0.0767310000820231 -0.6178291223990103
0.09277669896423012 0.315677430362963 -0.6149898893371445
0.2943334478595301 0.2899214064531338 -0.474099564570526
0.3151280172302804 0.07673100008202309 -0.6178291223990103
0.2943334478595301 0.2899214064531338 -0.474099564570526
0.4809830388863194 0.2758557027182936 -0.2955392744490619
0.3243652272383144 -0.004289295024117775 -0.6107669167982818
0.3151280172302804 0.07673100008202309 -0.6178291223990103
0.4809830388863194 0.2758557027182936 -0.2955392744490619
0.3243652272383144 -0.004289295024117775 -0.6107669167982818
0.4809830388863194 0.2758557027182936 -0.2955392744490619
0.6576619397281572 0.03524917779208145 -0.2988004776803632
0.3243652272383144 -0.004289295024117775 -0.6107669167982818
0.6576619397281572 0.03524917779208145 -0.2988004776803632
0.6560756999045515 -0.01427515096147043 -0.3018713915590378
0.651607147684524 -0.01506089411160729 -0.2906295012706426
0.6560756999045515 -0.01427515096147043 -0.3018713915590378
0.6576619397281572 0.03524917779208145 -0.2988004776803632
-0.2859118044812261 0.3040139099736333 -0.4806702923418087
-0.4823874566493366 0.3006642879237488 -0.2806689612180032
-0.2749099963687447 0.4915823364419233 -0.2719360511473089
-0.00982407916650606 0.6631547895560349 -0.2988188371234948
-0.2749099963687447 0.4915823364419233 -0.2719360511473089
-0.05597571354645873 0.6682747617886304 -0.2912557263368227
0.002875357462466979 0.3289262740353794 -0.6068982549745329
-0.2749099963687447 0.4915823364419233 -0.2719360511473089
-0.00982407916650606 0.6631547895560349 -0.2988188371234948
0.002875357462466979 0.3289262740353794 -0.6068982549745329
-0.2859118044812261 0.3040139099736333 -0.4806702923418087
-0.2749099963687447 0.4915823364419233 -0.2719360511473089
0.002875357462466979 0.3289262740353794 -0.6068982549745329
-0.09010496713324746 0.3193258670180232 -0.6160424502582451
-0.2859118044812261 0.3040139099736333 -0.4806702923418087
0.002875357462466979 0.3289262740353794 -0.6068982549745329
-0.00982407916650606 0.6631547895560349 -0.2988188371234948
0.0422159828775439 0.6644900687687085 -0.2953918952044905
0.09277669896423013 0.315677430362963 -0.6149898893371444
0.002875357462466979 0.3289262740353794 -0.6068982549745329
0.0422159828775439 0.6644900687687085 -0.2953918952044905
0.09277669896423013 0.315677430362963 -0.6149898893371444
0.0422159828775439 0.6644900687687085 -0.2953918952044905
0.2766023190662859 0.4830718328583549 -0.2950537840343236
0.09277669896423013 0.315677430362963 -0.6149898893371444
0.2766023190662859 0.4830718328583549 -0.2950537840343236
0.2943334478595301 0.2899214064531338 -0.474099564570526
0.4809830388863194 0.2758557027182936 -0.295539274449062
0.2943334478595301 0.2899214064531338 -0.474099564570526
0.2766023190662859 0.4830718328583549 -0.2950537840343236
-0.00982407916650606 0.6631547895560349 -0.2988188371234948
-0.05597571354645871 0.6682747617886304 -0.2912557263368227
-0.01056863708664996 0.6579614244004252 -0.2863619584978238
0.04221598287754391 0.6644900687687085 -0.2953918952044905
-0.00982407916650606 0.6631547895560349 -0.2988188371234948
-0.01056863708664996 0.6579614244004252 -0.2863619584978238
-0.3072279291972959 -0.6542572450407805 -0.0754628630830913
-0.302516030066033 -0.6485161285728185 -0.04684955575612217
-0.3117730048913743 -0.6520678916976737 -0.04697160041698518
-0.3072279291972959 -0.6542572450407805 -0.0754628630830913
-0.08013719333064617 -0.6464687711010954 -0.3075959506663519
-0.04924914647896467 -0.6397038428516539 -0.302499989903016
-0.3072279291972959 -0.6542572450407805 -0.0754628630830913
-0.04924914647896467 -0.6397038428516539 -0.302499989903016
-0.3025160300660331 -0.6485161285728185 -0.04684955575612217
-0.3025160300660331 -0.6485161285728185 -0.04684955575612217
-0.04924914647896467 -0.6397038428516539 -0.302499989903016
-0.03193633882962554 -0.5288373610127899 -0.02777989616417723
0.008391481609649989 -0.6443618839138084 -0.3068607264047646
0.3168330638531188 -0.6061538708722145 -0.08875122414389186
0.3094186629092395 -0.5881667023709418 -0.002689536337269251
0.008391481609649989 -0.6443618839138084 -0.3068607264047646
0.3094186629092395 -0.5881667023709418 -0.002689536337269251
-0.04924914647896467 -0.6397038428516539 -0.302499989903016
-0.04924914647896467 -0.6397038428516539 -0.302499989903016
0.3094186629092395 -0.5881667023709418 -0.002689536337269251
-0.03193633882962554 -0.5288373610127899 -0.02777989616417723
0.3094186629092396 -0.5881667023709418 -0.002689536337269251
0.3168330638531188 -0.6061538708722145 -0.08875122414389186
0.3297695480415506 -0.5932777070017528 -0.002285281369327915
-0.6475690229813879 -0.3155933112217182 -0.08129158053117995
-0.6436959080549336 -0.3207472905832 -0.04795790864293772
-0.639395018965375 -0.3107751812991398 -0.0478963967231081
-0.3117730048913743 -0.6520678916976737 -0.04697160041698518
-0.6436959080549335 -0.3207472905832 -0.04795790864293772
-0.6475690229813879 -0.3155933112217182 -0.08129158053117995
-0.3072279291972959 -0.6542572450407805 -0.0754628630830913
-0.3117730048913743 -0.6520678916976737 -0.04697160041698518
-0.6475690229813879 -0.3155933112217182 -0.08129158053117995
-0.3072279291972959 -0.6542572450407805 -0.0754628630830913
-0.6475690229813879 -0.3155933112217182 -0.08129158053117995
-0.4481498976312579 -0.2988128290604482 -0.3008288622520002
-0.3072279291972959 -0.6542572450407805 -0.0754628630830913
-0.4481498976312579 -0.2988128290604482 -0.3008288622520002
-0.2944597976843908 -0.4459704828309102 -0.2965694681411468
-0.08013719333064617 -0.6464687711010954 -0.3075959506663519
-0.3072279291972959 -0.6542572450407805 -0.0754628630830913
-0.2944597976843908 -0.4459704828309102 -0.2965694681411468
0.008391481609649989 -0.6443618839138084 -0.3068607264047646
0.2941327816611711 -0.4765045072344749 -0.2833325016989877
0.3168330638531188 -0.6061538708722145 -0.08875122414389186
0.4863967658529574 -0.2717155417233788 -0.2701467332087221
0.6598027076227417 -0.2989439439392401 -0.0517773214047067
0.6549087594609732 -0.3053947244725695 -0.01281465191335606
0.2941327816611711 -0.4765045072344749 -0.2833325016989877
0.4863967658529574 -0.2717155417233788 -0.2701467332087221
0.6549087594609732 -0.3053947244725695 -0.01281465191335606
0.2941327816611711 -0.4765045072344749 -0.2833325016989877
0.6549087594609732 -0.3053947244725695 -0.01281465191335606
0.3297695480415506 -0.5932777070017526 -0.002285281369327915
0.2941327816611711 -0.4765045072344749 -0.2833325016989877
0.3297695480415506 -0.5932777070017526 -0.002285281369327915
0.3168330638531188 -0.6061538708722145 -0.08875122414389186
0.6549087594609732 -0.3053947244725695 -0.01281465191335606
0.6598027076227417 -0.2989439439392401 -0.0517773214047067
0.6505747660632405 -0.2956331921234439 -0.01373786015483581
-0.6503937263956643 -0.08774510486535783 -0.3114234290638545
-0.6475690229813879 -0.3155933112217182 -0.08129158053117995
-0.639395018965375 -0.3107751812991398 -0.0478963967231081
-0.6503937263956643 -0.08774510486535783 -0.3114234290638545
-0.639395018965375 -0.3107751812991398 -0.0478963967231081
-0.641917412603517 -0.05305664907508726 -0.3054806072274669
-0.641917412603517 -0.05305664907508726 -0.3054806072274669
-0.639395018965375 -0.3107751812991398 -0.0478963967231081
-0.5260414158447183 -0.02251526886362031 -0.02429902550165198
-0.4481498976312578 -0.2988128290604481 -0.3008288622520002
-0.6475690229813879 -0.3155933112217182 -0.08129158053117995
-0.6503937263956643 -0.08774510486535783 -0.3114234290638545
0.4863967658529575 -0.2717155417233788 -0.2701467332087222
0.6613218889626746 -0.05574542898463362 -0.2944906495899088
0.6598027076227417 -0.2989439439392401 -0.0517773214047067
0.6598027076227417 -0.2989439439392401 -0.0517773214047067
0.6613218889626745 -0.05574542898463362 -0.2944906495899087