# vtk DataFile Version 2.0
Interface from PLIC
ASCII
DATASET POLYDATA
POINTS 148 float
0.125 0 0.05042786435469886
0.05162944362158665 0 0.125
0.125 0.01158491459178113 0.125
0.25 0.05761188712306244 0
0.1701473276555572 0 0
0.125 0 0.117147458103581
0.125 0.002183393875442245 0.125
0.25 0.09236805118182959 0.125
0.2740508077414827 0.125 0.125
0.25 0.09420675780709062 0.125
0.25 0.05741566583680942 0
0.3027861865636644 0.125 0
0.3543941444096215 0.25 0
0.3227740714144302 0.25 0.125
0.2676921197635209 0.125 0.125
0.2993121927587121 0.125 0
0.3188933165088273 0.25 0.125
0.3267511868127266 0.375 0.125
0.3537869100049653 0.375 0
0.345929039701066 0.25 0
0.2942596355224439 0.5 0.125
0.322409476399527 0.5 0
0.3574242447121123 0.375 0
0.3292744038350293 0.375 0.125
0.25 0.5994331882400084 0
0.2232132490370245 0.625 0
0.1864579023288092 0.625 0.125
0.25 0.5643517768452094 0.125
0.2993422041772098 0.5 0.125
0.25 0.5690316516068379 0.125
0.25 0.6143558787785902 0
0.3317388978565092 0.5 0
0.125 0.6668001384049952 0.125
0 0.6950789869865041 0.125
0 0.7241626911265719 0
0.125 0.695883842545063 0
0.125 0.6700579427504497 0.125
0.1908947061799414 0.625 0.125
0.2370652174136002 0.625 0
0.125 0.7016287376219574 0
0.25 0.625 0.02349755400093832
0.255193724685195 0.625 0
0.25 0.6300517479484554 0
0 0.05644932164763268 0.25
0 0 0.1712844640786815
0.11829906067052 0 0.125
0.125 0.00188013008921499 0.125
0.125 0.09152145849238048 0.25
0.125 0.09423260135284495 0.25
0.161988825345933 0.125 0.25
0.25 0.125 0.1616714585932524
0.25 0.09460618737730189 0.125
0.1362636460860753 0 0.125
0.125 0 0.1363042625963734
0.25 0.125 0.1599234930284359
0.25 0.09479619829151034 0.125
0.2728541215836528 0.125 0.125
0.2338226303117191 0.25 0.25
0.25 0.25 0.2337511712173184
0.25 0.125 0.1606096050514456
0.1610027261038347 0.125 0.25
0.2589661769054267 0.125 0.125
0.25 0.125 0.1377901166277845
0.25 0.25 0.2249676234215908
0.3200796890675676 0.25 0.125
0.25 0.375 0.2416239831722685
0.2416233300488156 0.375 0.25
0.2305569949520244 0.25 0.25
0.25 0.25 0.2305585109103546
0.3229346007424279 0.25 0.125
0.25 0.25 0.2285555792894847
0.25 0.375 0.2439887407109298
0.3338042368758896 0.375 0.125
0.25 0.375 0.2404728723027655
0.2403966457318138 0.375 0.25
0.1932248526615518 0.5 0.25
0.25 0.5 0.1936755050769509
0.294188466923462 0.5 0.125
0.25 0.5 0.1876507899593615
0.25 0.375 0.2462100964592955
0.3354911540884871 0.375 0.125
0 0.5960070610728093 0.25
0 0.625 0.2200119726090941
0.125 0.625 0.1848484385028121
0.125 0.562010353536228 0.25
0.125 0.5752788100421666 0.25
0.125 0.625 0.198734483628585
0.1997245535194424 0.625 0.125
0.25 0.5768851176462592 0.125
0.25 0.5 0.2042731481437823
0.203659150771066 0.5 0.25
0.25 0.5 0.20701200991926
0.25 0.5803171333201834 0.125
0.3017457103305853 0.5 0.125
0.125 0.669855994574123 0.125
0.125 0.625 0.1899187785845545
0 0.625 0.2344454292845566
0 0.7006219338870718 0.125
0.2018074618536578 0.625 0.125
0.125 0.625 0.2006965797699979
0.125 0.6717720162524078 0.125
0.125 0.125 0.2744422561281522
0.125 0.0937967677843821 0.25
0 0.05672982119396623 0.25
0 0.125 0.3034777033597377
0.1605363456256637 0.125 0.25
0.125 0.09411952033101516 0.25
0.125 0.125 0.2734201485387197
0 0.25 0.3552173279635733
0.125 0.25 0.3232021776334341
0.125 0.125 0.2686456984525772
0 0.125 0.3006608487827165
0.125 0.125 0.2592233567330745
0.1380833268911299 0.125 0.25
0.2249844540642522 0.25 0.25
0.125 0.25 0.3204860694279155
0.125 0.25 0.3191392057315512
0.125 0.375 0.3262190520125229
0 0.375 0.3530995754158333
0 0.25 0.3460197291348615
0.125 0.25 0.3233700896617492
0.2291179189717259 0.25 0.25
0.2443741482827315 0.375 0.25
0.125 0.375 0.3341208895577082
0.25 0.3244825956942522 0.25
0.25 0.375 0.2546187692420654
0.2546108986755927 0.375 0.25
0.125 0.5 0.2927850636626143
0 0.5 0.3204612425796306
0 0.375 0.3567252766848805
0.125 0.375 0.3290490977678641
0.125 0.5 0.2936422532701435
0.1873096748706828 0.5 0.25
0.2465975035152275 0.375 0.25
0.125 0.375 0.3351679784309966
0.25 0.3910570691736832 0.25
0.2546526156892053 0.375 0.25
0.25 0.375 0.2546511853247696
0.125 0.5 0.297487493250923
0.125 0.5665874416796051 0.25
0 0.6101995460541574 0.25
0 0.5 0.3285898972464115
0.2069964453316642 0.5 0.25
0.125 0.5789019600196035 0.25
0.125 0.5 0.3007902450764663
0.01469912197371983 0.625 0.25
0 0.625 0.2531403027697327
0 0.6280908907568971 0.25
POLYGONS 38 186
3 0 1 2
5 3 4 5 6 7
4 8 9 10 11
4 12 13 14 15
4 16 17 18 19
4 20 21 22 23
4 24 25 26 27
4 28 29 30 31
4 32 33 34 35
4 36 37 38 39
3 40 41 42
5 43 44 45 46 47
6 48 49 50 51 52 53
3 54 55 56
4 57 58 59 60
4 61 62 63 64
4 65 66 67 68
4 69 70 71 72
4 73 74 75 76
4 77 78 79 80
4 81 82 83 84
6 85 86 87 88 89 90
3 91 92 93
4 94 95 96 97
3 98 99 100
4 101 102 103 104
3 105 106 107
4 108 109 110 111
4 112 113 114 115
4 116 117 118 119
4 120 121 122 123
3 124 125 126
4 127 128 129 130
4 131 132 133 134
3 135 136 137
4 138 139 140 141
3 142 143 144
3 145 146 147
CELL_DATA 38
SCALARS c float
LOOKUP_TABLE default
0
1
2
1002
2002
3002
4001
4002
5000
5001
5002
1000000
1000001
1000002
1001001
1001002
1002001
1002002
1003001
1003002
1004000
1004001
1004002
1005000
1005001
2000000
2000001
2001000
2001001
2002000
2002001
2002002
2003000
2003001
2003002
2004000
2004001
2005000
SCALARS l float
LOOKUP_TABLE default
0
0
0
0
0
0
0
0
0
0
0
0
0
0
0
0
0
0
0
0
0
0
0
0
0
0
0
0
0
0
0
0
0
0
0
0
0
0
SCALARS cl float
LOOKUP_TABLE default
0
0
0
0
0
0
0
0
0
0
0
0
0
0
0
0
0
0
0
0
0
0
0
0
0
0
0
0
0
0
0
0
0
0
0
0
0
0
