# vtk DataFile Version 2.0
Reconstructed linear interface
ASCII
DATASET POLYDATA
POINTS 462 float
-0.125 0.1141411467321324 -0.25
-0.141422746448024 0.125 -0.25
-0.25 0.125 -0.1376814993170269
-0.25 0.1168941915985591 -0.125
-0.125 0.03424317687460181 -0.125
-0.125 0.05600648397020758 -0.125
-0.125 0.125 -0.2298290445849882
-0.06195326169528884 0.125 -0.25
0 0.1119546819401241 -0.25
0 0.02968559766232028 -0.125
0.125 0.05600648397020758 -0.125
0.125 0.125 -0.2298290445849882
0.06195326169528884 0.125 -0.25
0 0.1119546819401241 -0.25
0 0.02968559766232028 -0.125
0.125 0.1141411467321324 -0.25
0.141422746448024 0.125 -0.25
0.25 0.125 -0.1376814993170269
0.25 0.1168941915985591 -0.125
0.125 0.03424317687460181 -0.125
0.25 0.125 -0.1439836465564305
0.25 0.1123490550172182 -0.125
0.2598534174414321 0.125 -0.125
-0.25 0.1454410617350809 -0.125
-0.2285958447923289 0.125 -0.125
-0.125 0.125 -0.2318776439420792
-0.125 0.1417755003392026 -0.25
-0.2383235649905976 0.25 -0.25
-0.25 0.25 -0.2379536687407742
-0.09688995554601318 0.125 -0.25
-0.125 0.125 -0.2433872778629672
-0.125 0.1312646520529357 -0.25
0.09688995554601318 0.125 -0.25
0.125 0.125 -0.2433872778629672
0.125 0.1312646520529357 -0.25
0.25 0.1454410617350809 -0.125
0.2285958447923289 0.125 -0.125
0.125 0.125 -0.2318776439420792
0.125 0.1417755003392026 -0.25
0.2383235649905976 0.25 -0.25
0.25 0.25 -0.2379536687407742
0.25 0.25 -0.1811347176184396
0.25 0.20374734178107 -0.125
0.2810458780260665 0.25 -0.125
0.3275664352719117 0.25 -0.125
0.25 0.25 -0.2434906789452851
0.25 0.2650799689122894 -0.25
0.2810600201982816 0.375 -0.25
0.3628875909008358 0.375 -0.125
-0.25 0.4503786326257767 -0.25
-0.236012445651594 0.5 -0.25
-0.25 0.5 -0.2364706663741076
0.25 0.4503786326257767 -0.25
0.236012445651594 0.5 -0.25
0.25 0.5 -0.2364706663741076
0.3190827284785948 0.5 -0.125
0.25 0.5 -0.2255184233320169
0.25 0.4293637699864375 -0.25
0.2629492689861387 0.375 -0.25
0.3488573122440539 0.375 -0.125
-0.25 0.5 -0.246166824116535
-0.2460138408464059 0.5 -0.25
-0.125 0.6226997178152007 -0.25
-0.125 0.625 -0.2478183920392454
-0.25 0.625 -0.1276157189971749
-0.0470219219154337 0.625 -0.25
-0.125 0.6043731394453362 -0.25
-0.125 0.625 -0.2308848198706991
0.0470219219154337 0.625 -0.25
0.125 0.6043731394453362 -0.25
0.125 0.625 -0.2308848198706991
0.25 0.5 -0.246166824116535
0.2460138408464059 0.5 -0.25
0.125 0.6226997178152007 -0.25
0.125 0.625 -0.2478183920392454
0.25 0.625 -0.1276157189971749
0.2568626138042177 0.625 -0.125
0.25 0.625 -0.1357002165636303
0.25 0.5072284466336768 -0.25
0.2544993209654181 0.5 -0.25
0.3346684203874741 0.5 -0.125
-0.2434415442579641 0.625 -0.125
-0.125 0.625 -0.2410801173714572
-0.125 0.697248019331062 -0.125
-0.125 0.6994983701789975 -0.125
-0.125 0.625 -0.2301510528045242
-0.06057008929862747 0.625 -0.25
0 0.6382202999026299 -0.25
0 0.726781431950316 -0.125
0.125 0.6994983701789975 -0.125
0.125 0.625 -0.2301510528045242
0.06057008929862747 0.625 -0.25
0 0.6382202999026299 -0.25
0 0.726781431950316 -0.125
0.2434415442579641 0.625 -0.125
0.125 0.625 -0.2410801173714572
0.125 0.697248019331062 -0.125
0.25 0.625 -0.1417041212964212
0.2607165944207491 0.625 -0.125
0.25 0.6350525744000916 -0.125
-0.125 0.05738251613491098 -0.125
-0.2239140630392251 0.125 -0.125
-0.25 0.125 -0.03104815918739475
-0.25 0.1191069792854781 0
-0.125 0.03365719364898727 0
-0.125 0.07268853351147578 -0.125
-0.125 0.05834288126505506 0
0 0.04166529808008367 0
0 0.05601095032650439 -0.125
0.125 0.07268853351147578 -0.125
0.125 0.05834288126505506 0
0 0.04166529808008367 0
0 0.05601095032650439 -0.125
0.125 0.05738251613491098 -0.125
0.2239140630392251 0.125 -0.125
0.25 0.125 -0.03104815918739475
0.25 0.1191069792854781 0
0.125 0.03365719364898727 0
0.25 0.125 -0.05921927243939212
0.25 0.114322286546391 0
0.2587968049599494 0.125 0
-0.25 0.1283408159209872 0
-0.2465187081238053 0.125 0
-0.2209402526122698 0.125 -0.125
-0.25 0.1528871379319431 -0.125
0.25 0.1283408159209872 0
0.2465187081238053 0.125 0
0.2209402526122698 0.125 -0.125
0.25 0.1528871379319431 -0.125
0.3000571132158338 0.25 -0.125
0.25 0.181032671716364 -0.125
0.25 0.1465505826825224 0
0.3250845265960767 0.25 0
0.3176609859008931 0.25 -0.125
0.3373686559180203 0.25 0
0.3698050728289391 0.375 0
0.350097402811812 0.375 -0.125
0.3133359487349026 0.5 -0.125
0.3352241907730362 0.5 0
0.357687127642255 0.375 0
0.3357988856041214 0.375 -0.125
-0.25 0.625 -0.06682619098705533
-0.25 0.6086575125517599 -0.125
-0.2341734856006801 0.625 -0.125
0.25 0.625 -0.06682619098705533
0.25 0.6086575125517599 -0.125
0.2341734856006801 0.625 -0.125
0.3275973127781165 0.5 -0.125
0.25 0.6190703580347978 -0.125
0.25 0.625 -0.1077246587279406
0.2740968339420718 0.625 0
0.3555584525795994 0.5 0
-0.125 0.6994090754876376 -0.125
-0.2342597413277534 0.625 -0.125
-0.25 0.625 -0.07783211649288133
-0.25 0.6426884613485149 0
-0.125 0.7278171127888794 0
-0.125 0.6962049026201762 -0.125
0 0.7219999395450339 -0.125
0 0.7489199519998149 0
-0.125 0.7231249150749572 0
0.125 0.6962049026201762 -0.125
0 0.7219999395450339 -0.125
0 0.7489199519998149 0
0.125 0.7231249150749572 0
0.125 0.6994090754876376 -0.125
0.2342597413277534 0.625 -0.125
0.25 0.625 -0.07783211649288133
0.25 0.6426884613485149 0
0.125 0.7278171127888794 0
0.25 0.6292375603543315 -0.125
0.2544533972158204 0.625 -0.125
0.2814136698450541 0.625 0
0.25 0.6548911854183066 0
-0.007275604322539236 0.75 0
0 0.75 -0.00699246476491789
0 0.7514967250845888 0
0.007275604322539236 0.75 0
0 0.75 -0.00699246476491789
0 0.7514967250845888 0
-0.125 0.05738251613491098 0.125
-0.2239140630392251 0.125 0.125
-0.25 0.125 0.03104815918739475
-0.25 0.1191069792854781 0
-0.125 0.03365719364898727 0
-0.125 0.07268853351147578 0.125
-0.125 0.05834288126505506 0
0 0.04166529808008367 0
0 0.05601095032650439 0.125
0.125 0.07268853351147578 0.125
0.125 0.05834288126505506 0
0 0.04166529808008367 0
0 0.05601095032650439 0.125
0.125 0.05738251613491098 0.125
0.2239140630392251 0.125 0.125
0.25 0.125 0.03104815918739475
0.25 0.1191069792854781 0
0.125 0.03365719364898727 0
0.25 0.125 0.05921927243939212
0.25 0.114322286546391 0
0.2587968049599494 0.125 0
-0.25 0.1283408159209872 0
-0.2465187081238053 0.125 0
-0.2209402526122698 0.125 0.125
-0.25 0.1528871379319431 0.125
0.25 0.1283408159209872 0
0.2465187081238053 0.125 0
0.2209402526122698 0.125 0.125
0.25 0.1528871379319431 0.125
0.3000571132158338 0.25 0.125
0.25 0.181032671716364 0.125
0.25 0.1465505826825224 0
0.3250845265960767 0.25 0
0.3176609859008931 0.25 0.125
0.3373686559180203 0.25 0
0.3698050728289391 0.375 0
0.350097402811812 0.375 0.125
0.3133359487349026 0.5 0.125
0.3352241907730362 0.5 0
0.357687127642255 0.375 0
0.3357988856041214 0.375 0.125
-0.25 0.625 0.06682619098705533
-0.25 0.6086575125517599 0.125
-0.2341734856006801 0.625 0.125
0.25 0.625 0.06682619098705533
0.25 0.6086575125517599 0.125
0.2341734856006801 0.625 0.125
0.3275973127781165 0.5 0.125
0.25 0.6190703580347978 0.125
0.25 0.625 0.1077246587279406
0.2740968339420718 0.625 0
0.3555584525795994 0.5 0
-0.125 0.6994090754876376 0.125
-0.2342597413277534 0.625 0.125
-0.25 0.625 0.07783211649288133
-0.25 0.6426884613485149 0
-0.125 0.7278171127888794 0
-0.125 0.6962049026201762 0.125
0 0.7219999395450339 0.125
0 0.7489199519998149 0
-0.125 0.7231249150749572 0
0.125 0.6962049026201762 0.125
0 0.7219999395450339 0.125
0 0.7489199519998149 0
0.125 0.7231249150749572 0
0.125 0.6994090754876376 0.125
0.2342597413277534 0.625 0.125
0.25 0.625 0.07783211649288133
0.25 0.6426884613485149 0
0.125 0.7278171127888794 0
0.25 0.6292375603543315 0.125
0.2544533972158204 0.625 0.125
0.2814136698450541 0.625 0
0.25 0.6548911854183066 0
-0.007275604322539236 0.75 0
0 0.75 0.00699246476491789
0 0.7514967250845888 0
0.007275604322539236 0.75 0
0 0.75 0.00699246476491789
0 0.7514967250845888 0
-0.125 0.1141411467321324 0.25
-0.141422746448024 0.125 0.25
-0.25 0.125 0.1376814993170269
-0.25 0.1168941915985591 0.125
-0.125 0.03424317687460181 0.125
-0.125 0.05600648397020758 0.125
-0.125 0.125 0.2298290445849882
-0.06195326169528884 0.125 0.25
0 0.1119546819401241 0.25
0 0.02968559766232028 0.125
0.125 0.05600648397020758 0.125
0.125 0.125 0.2298290445849882
0.06195326169528884 0.125 0.25
0 0.1119546819401241 0.25
0 0.02968559766232028 0.125
0.125 0.1141411467321324 0.25
0.141422746448024 0.125 0.25
0.25 0.125 0.1376814993170269
0.25 0.1168941915985591 0.125
0.125 0.03424317687460181 0.125
0.25 0.125 0.1439836465564305
0.25 0.1123490550172182 0.125
0.2598534174414321 0.125 0.125
-0.25 0.1454410617350809 0.125
-0.2285958447923289 0.125 0.125
-0.125 0.125 0.2318776439420792
-0.125 0.1417755003392026 0.25
-0.2383235649905976 0.25 0.25
-0.25 0.25 0.2379536687407742
-0.09688995554601318 0.125 0.25
-0.125 0.125 0.2433872778629672
-0.125 0.1312646520529357 0.25
0.09688995554601318 0.125 0.25
0.125 0.125 0.2433872778629672
0.125 0.1312646520529357 0.25
0.25 0.1454410617350809 0.125
0.2285958447923289 0.125 0.125
0.125 0.125 0.2318776439420792
0.125 0.1417755003392026 0.25
0.2383235649905976 0.25 0.25
0.25 0.25 0.2379536687407742
0.25 0.25 0.1811347176184396
0.25 0.20374734178107 0.125
0.2810458780260665 0.25 0.125
0.3275664352719117 0.25 0.125
0.25 0.25 0.2434906789452851
0.25 0.2650799689122894 0.25
0.2810600201982816 0.375 0.25
0.3628875909008358 0.375 0.125
-0.25 0.4503786326257767 0.25
-0.236012445651594 0.5 0.25
-0.25 0.5 0.2364706663741076
0.25 0.4503786326257767 0.25
0.236012445651594 0.5 0.25
0.25 0.5 0.2364706663741076
0.3190827284785948 0.5 0.125
0.25 0.5 0.2255184233320169
0.25 0.4293637699864375 0.25
0.2629492689861387 0.375 0.25
0.3488573122440539 0.375 0.125
-0.25 0.5 0.246166824116535
-0.2460138408464059 0.5 0.25
-0.125 0.6226997178152007 0.25
-0.125 0.625 0.2478183920392454
-0.25 0.625 0.1276157189971749
-0.0470219219154337 0.625 0.25
-0.125 0.6043731394453362 0.25
-0.125 0.625 0.2308848198706991
0.0470219219154337 0.625 0.25
0.125 0.6043731394453362 0.25
0.125 0.625 0.2308848198706991
0.25 0.5 0.246166824116535
0.2460138408464059 0.5 0.25
0.125 0.6226997178152007 0.25
0.125 0.625 0.2478183920392454
0.25 0.625 0.1276157189971749
0.2568626138042177 0.625 0.125
0.25 0.625 0.1357002165636303
0.25 0.5072284466336768 0.25
0.2544993209654181 0.5 0.25
0.3346684203874741 0.5 0.125
-0.2434415442579641 0.625 0.125
-0.125 0.625 0.2410801173714572
-0.125 0.697248019331062 0.125
-0.125 0.6994983701789975 0.125
-0.125 0.625 0.2301510528045242
-0.06057008929862747 0.625 0.25
0 0.6382202999026299 0.25
0 0.726781431950316 0.125
0.125 0.6994983701789975 0.125
0.125 0.625 0.2301510528045242
0.06057008929862747 0.625 0.25
0 0.6382202999026299 0.25
0 0.726781431950316 0.125
0.2434415442579641 0.625 0.125
0.125 0.625 0.2410801173714572
0.125 0.697248019331062 0.125
0.25 0.625 0.1417041212964212
0.2607165944207491 0.625 0.125
0.25 0.6350525744000916 0.125
-0.1469619598362695 0.125 0.25
-0.125 0.1096332313688841 0.25
-0.125 0.125 0.2622232438856367
-0.06736150542432427 0.125 0.25
0 0.111409905276807 0.25
0 0.125 0.2615458984099596
0.06736150542432427 0.125 0.25
0 0.111409905276807 0.25
0 0.125 0.2615458984099596
0.1469619598362695 0.125 0.25
0.125 0.1096332313688841 0.25
0.125 0.125 0.2622232438856367
-0.1822250492148778 0.25 0.25
-0.125 0.1956749161543297 0.25
-0.125 0.25 0.2848614872027514
-0.125 0.25 0.3055623201096123
-0.125 0.1709738982146365 0.25
0 0.1302395558942758 0.25
0 0.25 0.3342021557629709
0.125 0.25 0.3055623201096123
0.125 0.1709738982146365 0.25
0 0.1302395558942758 0.25
0 0.25 0.3342021557629709
0.1822250492148778 0.25 0.25
0.125 0.1956749161543297 0.25
0.125 0.25 0.2848614872027514
-0.125 0.25 0.3278926868086182
-0.2452166908422356 0.25 0.25
-0.25 0.2614640660407971 0.25
-0.25 0.375 0.2806941085300522
-0.125 0.375 0.3616860721489387
-0.125 0.25 0.3180481580688264
0 0.25 0.3386221599913611
0 0.375 0.3661204299961567
-0.125 0.375 0.3455464280736219
0.125 0.25 0.3180481580688264
0 0.25 0.3386221599913611
0 0.375 0.3661204299961567
0.125 0.375 0.3455464280736219
0.125 0.25 0.3278926868086182
0.2452166908422356 0.25 0.25
0.25 0.2614640660407971 0.25
0.25 0.375 0.2806941085300522
0.125 0.375 0.3616860721489387
0.25 0.2673509924191318 0.25
0.2761932228919474 0.375 0.25
0.25 0.375 0.2760228666696264
-0.125 0.5 0.3146540291868107
-0.2221217679147077 0.5 0.25
-0.25 0.4231604719933393 0.25
-0.25 0.375 0.2616318901183731
-0.125 0.375 0.3448444780054545
-0.125 0.5 0.3097656121197858
0 0.5 0.3319721698602918
0 0.375 0.355994319672241
-0.125 0.375 0.333787761931735
0.125 0.5 0.3097656121197858
0 0.5 0.3319721698602918
0 0.375 0.355994319672241
0.125 0.375 0.333787761931735
0.125 0.5 0.3146540291868107
0.2221217679147077 0.5 0.25
0.25 0.4231604719933393 0.25
0.25 0.375 0.2616318901183731
0.125 0.375 0.3448444780054545
0.25 0.4361324043457067 0.25
0.2641501969113302 0.375 0.25
0.25 0.375 0.2639195511927683
-0.25 0.5 0.2549257403667771
-0.25 0.5080564740058847 0.25
-0.1330433173377944 0.625 0.25
-0.125 0.625 0.2549171431595199
-0.125 0.5 0.3313423318211349
-0.125 0.5 0.3224676638573953
-0.125 0.611313509407922 0.25
-0.08056059788870173 0.625 0.25
0 0.625 0.2661526195010285
0 0.5 0.3475305046324602
0.125 0.5 0.3224676638573953
0.125 0.611313509407922 0.25
0.08056059788870173 0.625 0.25
0 0.625 0.2661526195010285
0 0.5 0.3475305046324602
0.25 0.5 0.2549257403667771
0.25 0.5080564740058847 0.25
0.1330433173377944 0.625 0.25
0.125 0.625 0.2549171431595199
0.125 0.5 0.3313423318211349
-0.1427812934175859 0.625 0.25
-0.125 0.625 0.2607595347747705
-0.125 0.6353356738448526 0.25
-0.125 0.6275470882156399 0.25
-0.125 0.625 0.2525851910232706
0 0.625 0.2771994523473271
0 0.6517985630160855 0.25
0.125 0.6275470882156399 0.25
0.125 0.625 0.2525851910232706
0 0.625 0.2771994523473271
0 0.6517985630160855 0.25
0.1427812934175859 0.625 0.25
0.125 0.625 0.2607595347747705
0.125 0.6353356738448526 0.25
POLYGONS 114 576
5 0 1 2 3 4
5 5 6 7 8 9
5 10 11 12 13 14
5 15 16 17 18 19
3 20 21 22
6 23 24 25 26 27 28
3 29 30 31
3 32 33 34
6 35 36 37 38 39 40
3 41 42 43
5 44 45 46 47 48
3 49 50 51
3 52 53 54
5 55 56 57 58 59
5 60 61 62 63 64
3 65 66 67
3 68 69 70
5 71 72 73 74 75
5 76 77 78 79 80
3 81 82 83
5 84 85 86 87 88
5 89 90 91 92 93
3 94 95 96
3 97 98 99
5 100 101 102 103 104
4 105 106 107 108
4 109 110 111 112
5 113 114 115 116 117
3 118 119 120
4 121 122 123 124
4 125 126 127 128
4 129 130 131 132
4 133 134 135 136
4 137 138 139 140
3 141 142 143
3 144 145 146
5 147 148 149 150 151
5 152 153 154 155 156
4 157 158 159 160
4 161 162 163 164
5 165 166 167 168 169
4 170 171 172 173
3 174 175 176
3 177 178 179
5 180 181 182 183 184
4 185 186 187 188
4 189 190 191 192
5 193 194 195 196 197
3 198 199 200
4 201 202 203 204
4 205 206 207 208
4 209 210 211 212
4 213 214 215 216
4 217 218 219 220
3 221 222 223
3 224 225 226
5 227 228 229 230 231
5 232 233 234 235 236
4 237 238 239 240
4 241 242 243 244
5 245 246 247 248 249
4 250 251 252 253
3 254 255 256
3 257 258 259
5 260 261 262 263 264
5 265 266 267 268 269
5 270 271 272 273 274
5 275 276 277 278 279
3 280 281 282
6 283 284 285 286 287 288
3 289 290 291
3 292 293 294
6 295 296 297 298 299 300
3 301 302 303
5 304 305 306 307 308
3 309 310 311
3 312 313 314
5 315 316 317 318 319
5 320 321 322 323 324
3 325 326 327
3 328 329 330
5 331 332 333 334 335
5 336 337 338 339 340
3 341 342 343
5 344 345 346 347 348
5 349 350 351 352 353
3 354 355 356
3 357 358 359
3 360 361 362
3 363 364 365
3 366 367 368
3 369 370 371
3 372 373 374
4 375 376 377 378
4 379 380 381 382
3 383 384 385
5 386 387 388 389 390
4 391 392 393 394
4 395 396 397 398
5 399 400 401 402 403
3 404 405 406
5 407 408 409 410 411
4 412 413 414 415
4 416 417 418 419
5 420 421 422 423 424
3 425 426 427
5 428 429 430 431 432
5 433 434 435 436 437
5 438 439 440 441 442
5 443 444 445 446 447
3 448 449 450
4 451 452 453 454
4 455 456 457 458
3 459 460 461
CELL_DATA 114
SCALARS c float
LOOKUP_TABLE default
-2000002
-2000001
-2000000
-1999999
-1999998
-1999002
-1999001
-1999000
-1998999
-1998998
-1997998
-1997002
-1996999
-1996998
-1996002
-1996001
-1996000
-1995999
-1995998
-1995002
-1995001
-1995000
-1994999
-1994998
-1000002
-1000001
-1000000
-999999
-999998
-999002
-998999
-998998
-997998
-996998
-996002
-995999
-995998
-995002
-995001
-995000
-994999
-994998
-994001
-994000
-2
-1
0
1
2
998
1001
1002
2002
3002
3998
4001
4002
4998
4999
5000
5001
5002
5999
6000
999998
999999
1000000
1000001
1000002
1000998
1000999
1001000
1001001
1001002
1002002
1002998
1003001
1003002
1003998
1003999
1004000
1004001
1004002
1004998
1004999
1005000
1005001
1005002
1999998
1999999
2000000
2000001
2000998
2000999
2001000
2001001
2001998
2001999
2002000
2002001
2002002
2002998
2002999
2003000
2003001
2003002
2003998
2003999
2004000
2004001
2004998
2004999
2005000
2005001
