<?xml version="1.0"?>
<VTKFile type="StructuredGrid" version="0.1" byte_order="LittleEndian">
  <StructuredGrid WholeExtent="0 8 0 8 0 8">
    <Piece Extent="0 8 0 8 0 8">
      <PointData>
      </PointData>
      <CellData>
        <DataArray Name="vx" NumberOfComponents="1" type="Float32" format="ascii">
0.87013095329578549197 0.87013095329581535697 0.8701309532957990367 0.87013095329579615012 0.87013095329581224835 0.87013095329579648318 0.87013095329579870363 0.870130953295815468 0.61246421883382262674 0.61246421883380819384 0.61246421883381507723 0.61246421883381751972 0.61246421883380919304 0.61246421883381674256 0.61246421883381663154 0.61246421883380719464 0.3622888660392174498 0.36228886603922255683 0.36228886603922083598 0.3622888660392189486 0.36228886603922255683 0.36228886603922000331 0.36228886603921933718 0.36228886603922361154 0.11970981206618767911 0.11970981206618638848 0.11970981206618651338 0.11970981206618742931 0.11970981206618622195 0.11970981206618680481 0.11970981206618742931 0.11970981206618573622 -0.11970981206618705461 -0.11970981206618681869 -0.11970981206618665216 -0.11970981206618704074 -0.11970981206618666604 -0.1197098120661867493 -0.11970981206618706849 -0.11970981206618648562 -0.36228886603922078047 -0.36228886603922078047 -0.362288866039220947 -0.36228886603922066945 -0.36228886603922089149 -0.36228886603922078047 -0.36228886603922078047 -0.36228886603922083598 -0.61246421883381430007 -0.61246421883381474416 -0.61246421883381418905 -0.61246421883381474416 -0.61246421883381418905 -0.61246421883381463314 -0.61246421883381430007 -0.61246421883381474416 -0.87013095329580281145 -0.87013095329580225634 -0.87013095329580281145 -0.87013095329580192328 -0.87013095329580292248 -0.87013095329580214532 -0.87013095329580258941 -0.87013095329580236736 0.87013095329579959181 0.87013095329581979787 0.8701309532957681725 0.87013095329584522197 0.8701309532957647308 0.87013095329582523796 0.87013095329579615012 0.87013095329580025794 0.61246421883381640949 0.61246421883380419704 0.61246421883383228568 0.61246421883379287276 0.61246421883383217466 0.61246421883380419704 0.61246421883381607643 0.61246421883381541029 0.36228886603921939269 0.36228886603922538789 0.36228886603921323095 0.36228886603922877407 0.36228886603921456322 0.36228886603922355603 0.36228886603922061393 0.36228886603922022536 0.11970981206618751258 0.11970981206618490356 0.11970981206618934445 0.11970981206618430681 0.11970981206618844239 0.11970981206618619419 0.11970981206618663828 0.11970981206618686032 -0.11970981206618723502 -0.11970981206618605541 -0.11970981206618770687 -0.11970981206618608317 -0.11970981206618723502 -0.11970981206618676318 -0.11970981206618676318 -0.11970981206618673542 -0.36228886603922050291 -0.36228886603922116905 -0.3622888660392204474 -0.36228886603922100251 -0.36228886603922072496 -0.36228886603922078047 -0.36228886603922083598 -0.362288866039220947 -0.61246421883381474416 -0.61246421883381418905 -0.61246421883381485518 -0.61246421883381418905 -0.61246421883381474416 -0.61246421883381418905 -0.61246421883381463314 -0.61246421883381430007 -0.87013095329580236736 -0.87013095329580281145 -0.87013095329580236736 -0.87013095329580314452 -0.8701309532958020343 -0.8701309532958030335 -0.87013095329580225634 -0.87013095329580270043 0.87013095329580769643 0.87013095329577960779 0.87013095329584322357 0.8701309532957547388 0.87013095329584233539 0.87013095329578060699 0.87013095329580691928 0.87013095329580480985 0.61246421883381085838 0.61246421883382706763 0.61246421883379298379 0.61246421883383794782 0.61246421883379531526 0.61246421883382351492 0.61246421883381330087 0.61246421883381274576 0.36228886603922277887 0.36228886603921489629 0.36228886603922944021 0.36228886603921189868 0.36228886603922699772 0.36228886603921822696 0.36228886603922028087 0.36228886603922111354 0.11970981206618572235 0.11970981206618898363 0.1197098120661838766 0.11970981206618944159 0.11970981206618515336 0.11970981206618719339 0.11970981206618704074 0.11970981206618677706 -0.11970981206618630521 -0.11970981206618766524 -0.119709812066185875 -0.11970981206618758197 -0.11970981206618645787 -0.11970981206618684645 -0.11970981206618688808 -0.11970981206618694359 -0.36228886603922116905 -0.36228886603922033638 -0.36228886603922122456 -0.36228886603922050291 -0.36228886603922089149 -0.36228886603922083598 -0.36228886603922083598 -0.36228886603922061393 -0.61246421883381418905 -0.61246421883381485518 -0.61246421883381418905 -0.61246421883381485518 -0.61246421883381418905 -0.61246421883381463314 -0.61246421883381430007 -0.61246421883381463314 -0.87013095329580281145 -0.87013095329580247839 -0.87013095329580281145 -0.87013095329580225634 -0.87013095329580314452 -0.87013095329580214532 -0.87013095329580258941 -0.87013095329580281145 0.87013095329581380266 0.87013095329580214532 0.87013095329578971082 0.87013095329582135218 0.87013095329578715731 0.87013095329580636417 0.87013095329581080506 0.8701309532957876014 0.61246421883380930407 0.61246421883381341189 0.61246421883382118345 0.61246421883380464113 0.61246421883382107243 0.61246421883381330087 0.61246421883380919304 0.61246421883382173856 0.36228886603922216825 0.36228886603922172416 0.36228886603921756082 0.36228886603922422216 0.36228886603921856002 0.36228886603922033638 0.36228886603922316745 0.36228886603921783838 0.11970981206618652726 0.11970981206618619419 0.11970981206618788728 0.11970981206618573622 0.1197098120661872489 0.11970981206618715176 0.11970981206618591663 0.11970981206618760972 -0.11970981206618686032 -0.11970981206618651338 -0.11970981206618719339 -0.1197098120661864995 -0.1197098120661868742 -0.11970981206618698522 -0.11970981206618651338 -0.11970981206618705461 -0.36228886603922066945 -0.362288866039220947 -0.36228886603922055842 -0.362288866039220947 -0.36228886603922078047 -0.36228886603922072496 -0.36228886603922089149 -0.36228886603922072496 -0.61246421883381463314 -0.61246421883381430007 -0.61246421883381485518 -0.61246421883381430007 -0.61246421883381474416 -0.61246421883381441109 -0.61246421883381452211 -0.61246421883381452211 -0.87013095329580258941 -0.87013095329580281145 -0.87013095329580247839 -0.87013095329580292248 -0.87013095329580236736 -0.87013095329580270043 -0.87013095329580281145 -0.87013095329580270043 0.87013095329576573 0.87013095329584022597 0.87013095329576850556 0.8701309532958299009 0.87013095329578071802 0.87013095329582290649 0.87013095329577871961 0.87013095329583334259 0.61246421883383261875 0.6124642188337955373 0.61246421883383050933 0.61246421883380097739 0.61246421883382473617 0.61246421883380386397 0.61246421883382662354 0.61246421883379842388 0.36228886603921361953 0.36228886603922777487 0.36228886603921467424 0.36228886603922527687 0.36228886603921689469 0.36228886603922455523 0.36228886603921578446 0.36228886603922683118 0.11970981206618901138 0.11970981206618458437 0.11970981206618853954 0.11970981206618543091 0.11970981206618791504 0.11970981206618552806 0.11970981206618840076 0.11970981206618469539 -0.11970981206618755421 -0.11970981206618619419 -0.11970981206618730441 -0.11970981206618644399 -0.11970981206618711012 -0.11970981206618641624 -0.11970981206618741544 -0.11970981206618615256 -0.36228886603922055842 -0.362288866039220947 -0.36228886603922066945 -0.36228886603922083598 -0.36228886603922072496 -0.362288866039220947 -0.36228886603922055842 -0.36228886603922111354 -0.61246421883381463314 -0.61246421883381463314 -0.61246421883381430007 -0.61246421883381474416 -0.61246421883381430007 -0.61246421883381452211 -0.61246421883381474416 -0.61246421883381430007 -0.87013095329580258941 -0.87013095329580247839 -0.87013095329580314452 -0.8701309532958020343 -0.87013095329580292248 -0.87013095329580258941 -0.87013095329580236736 -0.87013095329580292248 0.87013095329585810056 0.8701309532957338666 0.87013095329587408777 0.8701309532957383075 0.87013095329585188331 0.87013095329576550796 0.87013095329583556303 0.87013095329576106707 0.61246421883378554529 0.61246421883384860596 0.61246421883377877293 0.61246421883384505325 0.61246421883379076334 0.61246421883383161955 0.61246421883379764672 0.61246421883383528328 0.36228886603923227128 0.36228886603920718024 0.36228886603923393661 0.36228886603920967824 0.36228886603922877407 0.36228886603921467424 0.36228886603922699772 0.36228886603921212073 0.11970981206618280801 0.11970981206619110693 0.11970981206618268311 0.11970981206618989956 0.11970981206618457049 0.11970981206618855341 0.11970981206618468151 0.1197098120661897469 -0.11970981206618552806 -0.11970981206618822035 -0.11970981206618565296 -0.11970981206618763748 -0.1197098120661862497 -0.11970981206618738768 -0.11970981206618608317 -0.11970981206618790116 -0.36228886603922133558 -0.36228886603922028087 -0.36228886603922105802 -0.36228886603922055842 -0.36228886603922089149 -0.36228886603922066945 -0.36228886603922116905 -0.36228886603922033638 -0.61246421883381430007 -0.61246421883381463314 -0.61246421883381463314 -0.61246421883381430007 -0.61246421883381452211 -0.61246421883381463314 -0.61246421883381418905 -0.61246421883381474416 -0.87013095329580281145 -0.87013095329580270043 -0.87013095329580225634 -0.87013095329580314452 -0.87013095329580247839 -0.87013095329580258941 -0.8701309532958030335 -0.87013095329580225634 0.87013095329574463577 0.8701309532958761972 0.87013095329572409664 0.87013095329587208937 0.87013095329575040893 0.87013095329583844961 0.87013095329577128112 0.8701309532958428905 0.61246421883384438711 0.61246421883377677453 0.61246421883385304685 0.61246421883378088236 0.61246421883383861395 0.61246421883379731366 0.61246421883382973217 0.61246421883379320583 0.36228886603920845699 0.36228886603923543541 0.36228886603920618104 0.36228886603923260434 0.36228886603921250931 0.36228886603922649812 0.36228886603921478526 0.3622888660392293847 0.11970981206619100978 0.11970981206618197534 0.11970981206619123183 0.11970981206618346027 0.11970981206618895587 0.11970981206618518111 0.11970981206618876158 0.11970981206618371007 -0.11970981206618827586 -0.11970981206618530601 -0.11970981206618808157 -0.11970981206618590276 -0.1197098120661873738 -0.11970981206618633297 -0.11970981206618752646 -0.11970981206618570847 -0.36228886603922028087 -0.36228886603922128007 -0.36228886603922050291 -0.36228886603922089149 -0.36228886603922072496 -0.362288866039220947 -0.36228886603922050291 -0.36228886603922128007 -0.61246421883381485518 -0.61246421883381441109 -0.61246421883381441109 -0.61246421883381463314 -0.61246421883381430007 -0.61246421883381452211 -0.61246421883381463314 -0.61246421883381418905 -0.87013095329580258941 -0.87013095329580247839 -0.8701309532958030335 -0.87013095329580214532 -0.87013095329580292248 -0.87013095329580258941 -0.87013095329580247839 -0.87013095329580281145 0.87013095329584455584 0.87013095329575151915 0.87013095329585277149 0.87013095329576195525 0.8701309532958299009 0.87013095329578404868 0.87013095329582124116 0.87013095329577361259 0.61246421883379231765 0.61246421883383972418 0.6124642188337895421 0.61246421883383339591 0.61246421883380164353 0.61246421883382295981 0.61246421883380464113 0.6124642188338293991 0.36228886603922949572 0.36228886603921078846 0.36228886603922960674 0.36228886603921406362 0.36228886603922483278 0.36228886603921778287 0.36228886603922461074 0.36228886603921434117 0.11970981206618377946 0.11970981206618989956 0.11970981206618409864 0.11970981206618853954 0.11970981206618572235 0.11970981206618766524 0.11970981206618541703 0.11970981206618905301 -0.11970981206618586112 -0.11970981206618777626 -0.11970981206618608317 -0.11970981206618722115 -0.11970981206618655501 -0.11970981206618706849 -0.11970981206618631909 -0.11970981206618763748 -0.36228886603922111354 -0.36228886603922055842 -0.36228886603922089149 -0.36228886603922072496 -0.36228886603922078047 -0.36228886603922072496 -0.362288866039220947 -0.36228886603922050291 -0.61246421883381441109 -0.61246421883381441109 -0.61246421883381463314 -0.61246421883381418905 -0.61246421883381463314 -0.61246421883381430007 -0.61246421883381452211 -0.61246421883381452211 -0.87013095329580236736 -0.87013095329580292248 -0.8701309532958020343 -0.8701309532958030335 -0.8701309532958020343 -0.87013095329580258941 -0.87013095329580258941 -0.87013095329580270043 
        </DataArray>
      </CellData>
      <Points>
        <DataArray Name="m" NumberOfComponents="3" type="Float32" format="ascii">
0 0 0 0.125 0 0 0.25 0 0 0.375 0 0 0.5 0 0 0.625 0 0 0.75 0 0 0.875 0 0 1 0 0 0 0.125 0 0.125 0.125 0 0.25 0.125 0 0.375 0.125 0 0.5 0.125 0 0.625 0.125 0 0.75 0.125 0 0.875 0.125 0 1 0.125 0 0 0.25 0 0.125 0.25 0 0.25 0.25 0 0.375 0.25 0 0.5 0.25 0 0.625 0.25 0 0.75 0.25 0 0.875 0.25 0 1 0.25 0 0 0.375 0 0.125 0.375 0 0.25 0.375 0 0.375 0.375 0 0.5 0.375 0 0.625 0.375 0 0.75 0.375 0 0.875 0.375 0 1 0.375 0 0 0.5 0 0.125 0.5 0 0.25 0.5 0 0.375 0.5 0 0.5 0.5 0 0.625 0.5 0 0.75 0.5 0 0.875 0.5 0 1 0.5 0 0 0.625 0 0.125 0.625 0 0.25 0.625 0 0.375 0.625 0 0.5 0.625 0 0.625 0.625 0 0.75 0.625 0 0.875 0.625 0 1 0.625 0 0 0.75 0 0.125 0.75 0 0.25 0.75 0 0.375 0.75 0 0.5 0.75 0 0.625 0.75 0 0.75 0.75 0 0.875 0.75 0 1 0.75 0 0 0.875 0 0.125 0.875 0 0.25 0.875 0 0.375 0.875 0 0.5 0.875 0 0.625 0.875 0 0.75 0.875 0 0.875 0.875 0 1 0.875 0 0 1 0 0.125 1 0 0.25 1 0 0.375 1 0 0.5 1 0 0.625 1 0 0.75 1 0 0.875 1 0 1 1 0 0 0 0.125 0.125 0 0.125 0.25 0 0.125 0.375 0 0.125 0.5 0 0.125 0.625 0 0.125 0.75 0 0.125 0.875 0 0.125 1 0 0.125 0 0.125 0.125 0.125 0.125 0.125 0.25 0.125 0.125 0.375 0.125 0.125 0.5 0.125 0.125 0.625 0.125 0.125 0.75 0.125 0.125 0.875 0.125 0.125 1 0.125 0.125 0 0.25 0.125 0.125 0.25 0.125 0.25 0.25 0.125 0.375 0.25 0.125 0.5 0.25 0.125 0.625 0.25 0.125 0.75 0.25 0.125 0.875 0.25 0.125 1 0.25 0.125 0 0.375 0.125 0.125 0.375 0.125 0.25 0.375 0.125 0.375 0.375 0.125 0.5 0.375 0.125 0.625 0.375 0.125 0.75 0.375 0.125 0.875 0.375 0.125 1 0.375 0.125 0 0.5 0.125 0.125 0.5 0.125 0.25 0.5 0.125 0.375 0.5 0.125 0.5 0.5 0.125 0.625 0.5 0.125 0.75 0.5 0.125 0.875 0.5 0.125 1 0.5 0.125 0 0.625 0.125 0.125 0.625 0.125 0.25 0.625 0.125 0.375 0.625 0.125 0.5 0.625 0.125 0.625 0.625 0.125 0.75 0.625 0.125 0.875 0.625 0.125 1 0.625 0.125 0 0.75 0.125 0.125 0.75 0.125 0.25 0.75 0.125 0.375 0.75 0.125 0.5 0.75 0.125 0.625 0.75 0.125 0.75 0.75 0.125 0.875 0.75 0.125 1 0.75 0.125 0 0.875 0.125 0.125 0.875 0.125 0.25 0.875 0.125 0.375 0.875 0.125 0.5 0.875 0.125 0.625 0.875 0.125 0.75 0.875 0.125 0.875 0.875 0.125 1 0.875 0.125 0 1 0.125 0.125 1 0.125 0.25 1 0.125 0.375 1 0.125 0.5 1 0.125 0.625 1 0.125 0.75 1 0.125 0.875 1 0.125 1 1 0.125 0 0 0.25 0.125 0 0.25 0.25 0 0.25 0.375 0 0.25 0.5 0 0.25 0.625 0 0.25 0.75 0 0.25 0.875 0 0.25 1 0 0.25 0 0.125 0.25 0.125 0.125 0.25 0.25 0.125 0.25 0.375 0.125 0.25 0.5 0.125 0.25 0.625 0.125 0.25 0.75 0.125 0.25 0.875 0.125 0.25 1 0.125 0.25 0 0.25 0.25 0.125 0.25 0.25 0.25 0.25 0.25 0.375 0.25 0.25 0.5 0.25 0.25 0.625 0.25 0.25 0.75 0.25 0.25 0.875 0.25 0.25 1 0.25 0.25 0 0.375 0.25 0.125 0.375 0.25 0.25 0.375 0.25 0.375 0.375 0.25 0.5 0.375 0.25 0.625 0.375 0.25 0.75 0.375 0.25 0.875 0.375 0.25 1 0.375 0.25 0 0.5 0.25 0.125 0.5 0.25 0.25 0.5 0.25 0.375 0.5 0.25 0.5 0.5 0.25 0.625 0.5 0.25 0.75 0.5 0.25 0.875 0.5 0.25 1 0.5 0.25 0 0.625 0.25 0.125 0.625 0.25 0.25 0.625 0.25 0.375 0.625 0.25 0.5 0.625 0.25 0.625 0.625 0.25 0.75 0.625 0.25 0.875 0.625 0.25 1 0.625 0.25 0 0.75 0.25 0.125 0.75 0.25 0.25 0.75 0.25 0.375 0.75 0.25 0.5 0.75 0.25 0.625 0.75 0.25 0.75 0.75 0.25 0.875 0.75 0.25 1 0.75 0.25 0 0.875 0.25 0.125 0.875 0.25 0.25 0.875 0.25 0.375 0.875 0.25 0.5 0.875 0.25 0.625 0.875 0.25 0.75 0.875 0.25 0.875 0.875 0.25 1 0.875 0.25 0 1 0.25 0.125 1 0.25 0.25 1 0.25 0.375 1 0.25 0.5 1 0.25 0.625 1 0.25 0.75 1 0.25 0.875 1 0.25 1 1 0.25 0 0 0.375 0.125 0 0.375 0.25 0 0.375 0.375 0 0.375 0.5 0 0.375 0.625 0 0.375 0.75 0 0.375 0.875 0 0.375 1 0 0.375 0 0.125 0.375 0.125 0.125 0.375 0.25 0.125 0.375 0.375 0.125 0.375 0.5 0.125 0.375 0.625 0.125 0.375 0.75 0.125 0.375 0.875 0.125 0.375 1 0.125 0.375 0 0.25 0.375 0.125 0.25 0.375 0.25 0.25 0.375 0.375 0.25 0.375 0.5 0.25 0.375 0.625 0.25 0.375 0.75 0.25 0.375 0.875 0.25 0.375 1 0.25 0.375 0 0.375 0.375 0.125 0.375 0.375 0.25 0.375 0.375 0.375 0.375 0.375 0.5 0.375 0.375 0.625 0.375 0.375 0.75 0.375 0.375 0.875 0.375 0.375 1 0.375 0.375 0 0.5 0.375 0.125 0.5 0.375 0.25 0.5 0.375 0.375 0.5 0.375 0.5 0.5 0.375 0.625 0.5 0.375 0.75 0.5 0.375 0.875 0.5 0.375 1 0.5 0.375 0 0.625 0.375 0.125 0.625 0.375 0.25 0.625 0.375 0.375 0.625 0.375 0.5 0.625 0.375 0.625 0.625 0.375 0.75 0.625 0.375 0.875 0.625 0.375 1 0.625 0.375 0 0.75 0.375 0.125 0.75 0.375 0.25 0.75 0.375 0.375 0.75 0.375 0.5 0.75 0.375 0.625 0.75 0.375 0.75 0.75 0.375 0.875 0.75 0.375 1 0.75 0.375 0 0.875 0.375 0.125 0.875 0.375 0.25 0.875 0.375 0.375 0.875 0.375 0.5 0.875 0.375 0.625 0.875 0.375 0.75 0.875 0.375 0.875 0.875 0.375 1 0.875 0.375 0 1 0.375 0.125 1 0.375 0.25 1 0.375 0.375 1 0.375 0.5 1 0.375 0.625 1 0.375 0.75 1 0.375 0.875 1 0.375 1 1 0.375 0 0 0.5 0.125 0 0.5 0.25 0 0.5 0.375 0 0.5 0.5 0 0.5 0.625 0 0.5 0.75 0 0.5 0.875 0 0.5 1 0 0.5 0 0.125 0.5 0.125 0.125 0.5 0.25 0.125 0.5 0.375 0.125 0.5 0.5 0.125 0.5 0.625 0.125 0.5 0.75 0.125 0.5 0.875 0.125 0.5 1 0.125 0.5 0 0.25 0.5 0.125 0.25 0.5 0.25 0.25 0.5 0.375 0.25 0.5 0.5 0.25 0.5 0.625 0.25 0.5 0.75 0.25 0.5 0.875 0.25 0.5 1 0.25 0.5 0 0.375 0.5 0.125 0.375 0.5 0.25 0.375 0.5 0.375 0.375 0.5 0.5 0.375 0.5 0.625 0.375 0.5 0.75 0.375 0.5 0.875 0.375 0.5 1 0.375 0.5 0 0.5 0.5 0.125 0.5 0.5 0.25 0.5 0.5 0.375 0.5 0.5 0.5 0.5 0.5 0.625 0.5 0.5 0.75 0.5 0.5 0.875 0.5 0.5 1 0.5 0.5 0 0.625 0.5 0.125 0.625 0.5 0.25 0.625 0.5 0.375 0.625 0.5 0.5 0.625 0.5 0.625 0.625 0.5 0.75 0.625 0.5 0.875 0.625 0.5 1 0.625 0.5 0 0.75 0.5 0.125 0.75 0.5 0.25 0.75 0.5 0.375 0.75 0.5 0.5 0.75 0.5 0.625 0.75 0.5 0.75 0.75 0.5 0.875 0.75 0.5 1 0.75 0.5 0 0.875 0.5 0.125 0.875 0.5 0.25 0.875 0.5 0.375 0.875 0.5 0.5 0.875 0.5 0.625 0.875 0.5 0.75 0.875 0.5 0.875 0.875 0.5 1 0.875 0.5 0 1 0.5 0.125 1 0.5 0.25 1 0.5 0.375 1 0.5 0.5 1 0.5 0.625 1 0.5 0.75 1 0.5 0.875 1 0.5 1 1 0.5 0 0 0.625 0.125 0 0.625 0.25 0 0.625 0.375 0 0.625 0.5 0 0.625 0.625 0 0.625 0.75 0 0.625 0.875 0 0.625 1 0 0.625 0 0.125 0.625 0.125 0.125 0.625 0.25 0.125 0.625 0.375 0.125 0.625 0.5 0.125 0.625 0.625 0.125 0.625 0.75 0.125 0.625 0.875 0.125 0.625 1 0.125 0.625 0 0.25 0.625 0.125 0.25 0.625 0.25 0.25 0.625 0.375 0.25 0.625 0.5 0.25 0.625 0.625 0.25 0.625 0.75 0.25 0.625 0.875 0.25 0.625 1 0.25 0.625 0 0.375 0.625 0.125 0.375 0.625 0.25 0.375 0.625 0.375 0.375 0.625 0.5 0.375 0.625 0.625 0.375 0.625 0.75 0.375 0.625 0.875 0.375 0.625 1 0.375 0.625 0 0.5 0.625 0.125 0.5 0.625 0.25 0.5 0.625 0.375 0.5 0.625 0.5 0.5 0.625 0.625 0.5 0.625 0.75 0.5 0.625 0.875 0.5 0.625 1 0.5 0.625 0 0.625 0.625 0.125 0.625 0.625 0.25 0.625 0.625 0.375 0.625 0.625 0.5 0.625 0.625 0.625 0.625 0.625 0.75 0.625 0.625 0.875 0.625 0.625 1 0.625 0.625 0 0.75 0.625 0.125 0.75 0.625 0.25 0.75 0.625 0.375 0.75 0.625 0.5 0.75 0.625 0.625 0.75 0.625 0.75 0.75 0.625 0.875 0.75 0.625 1 0.75 0.625 0 0.875 0.625 0.125 0.875 0.625 0.25 0.875 0.625 0.375 0.875 0.625 0.5 0.875 0.625 0.625 0.875 0.625 0.75 0.875 0.625 0.875 0.875 0.625 1 0.875 0.625 0 1 0.625 0.125 1 0.625 0.25 1 0.625 0.375 1 0.625 0.5 1 0.625 0.625 1 0.625 0.75 1 0.625 0.875 1 0.625 1 1 0.625 0 0 0.75 0.125 0 0.75 0.25 0 0.75 0.375 0 0.75 0.5 0 0.75 0.625 0 0.75 0.75 0 0.75 0.875 0 0.75 1 0 0.75 0 0.125 0.75 0.125 0.125 0.75 0.25 0.125 0.75 0.375 0.125 0.75 0.5 0.125 0.75 0.625 0.125 0.75 0.75 0.125 0.75 0.875 0.125 0.75 1 0.125 0.75 0 0.25 0.75 0.125 0.25 0.75 0.25 0.25 0.75 0.375 0.25 0.75 0.5 0.25 0.75 0.625 0.25 0.75 0.75 0.25 0.75 0.875 0.25 0.75 1 0.25 0.75 0 0.375 0.75 0.125 0.375 0.75 0.25 0.375 0.75 0.375 0.375 0.75 0.5 0.375 0.75 0.625 0.375 0.75 0.75 0.375 0.75 0.875 0.375 0.75 1 0.375 0.75 0 0.5 0.75 0.125 0.5 0.75 0.25 0.5 0.75 0.375 0.5 0.75 0.5 0.5 0.75 0.625 0.5 0.75 0.75 0.5 0.75 0.875 0.5 0.75 1 0.5 0.75 0 0.625 0.75 0.125 0.625 0.75 0.25 0.625 0.75 0.375 0.625 0.75 0.5 0.625 0.75 0.625 0.625 0.75 0.75 0.625 0.75 0.875 0.625 0.75 1 0.625 0.75 0 0.75 0.75 0.125 0.75 0.75 0.25 0.75 0.75 0.375 0.75 0.75 0.5 0.75 0.75 0.625 0.75 0.75 0.75 0.75 0.75 0.875 0.75 0.75 1 0.75 0.75 0 0.875 0.75 0.125 0.875 0.75 0.25 0.875 0.75 0.375 0.875 0.75 0.5 0.875 0.75 0.625 0.875 0.75 0.75 0.875 0.75 0.875 0.875 0.75 1 0.875 0.75 0 1 0.75 0.125 1 0.75 0.25 1 0.75 0.375 1 0.75 0.5 1 0.75 0.625 1 0.75 0.75 1 0.75 0.875 1 0.75 1 1 0.75 0 0 0.875 0.125 0 0.875 0.25 0 0.875 0.375 0 0.875 0.5 0 0.875 0.625 0 0.875 0.75 0 0.875 0.875 0 0.875 1 0 0.875 0 0.125 0.875 0.125 0.125 0.875 0.25 0.125 0.875 0.375 0.125 0.875 0.5 0.125 0.875 0.625 0.125 0.875 0.75 0.125 0.875 0.875 0.125 0.875 1 0.125 0.875 0 0.25 0.875 0.125 0.25 0.875 0.25 0.25 0.875 0.375 0.25 0.875 0.5 0.25 0.875 0.625 0.25 0.875 0.75 0.25 0.875 0.875 0.25 0.875 1 0.25 0.875 0 0.375 0.875 0.125 0.375 0.875 0.25 0.375 0.875 0.375 0.375 0.875 0.5 0.375 0.875 0.625 0.375 0.875 0.75 0.375 0.875 0.875 0.375 0.875 1 0.375 0.875 0 0.5 0.875 0.125 0.5 0.875 0.25 0.5 0.875 0.375 0.5 0.875 0.5 0.5 0.875 0.625 0.5 0.875 0.75 0.5 0.875 0.875 0.5 0.875 1 0.5 0.875 0 0.625 0.875 0.125 0.625 0.875 0.25 0.625 0.875 0.375 0.625 0.875 0.5 0.625 0.875 0.625 0.625 0.875 0.75 0.625 0.875 0.875 0.625 0.875 1 0.625 0.875 0 0.75 0.875 0.125 0.75 0.875 0.25 0.75 0.875 0.375 0.75 0.875 0.5 0.75 0.875 0.625 0.75 0.875 0.75 0.75 0.875 0.875 0.75 0.875 1 0.75 0.875 0 0.875 0.875 0.125 0.875 0.875 0.25 0.875 0.875 0.375 0.875 0.875 0.5 0.875 0.875 0.625 0.875 0.875 0.75 0.875 0.875 0.875 0.875 0.875 1 0.875 0.875 0 1 0.875 0.125 1 0.875 0.25 1 0.875 0.375 1 0.875 0.5 1 0.875 0.625 1 0.875 0.75 1 0.875 0.875 1 0.875 1 1 0.875 0 0 1 0.125 0 1 0.25 0 1 0.375 0 1 0.5 0 1 0.625 0 1 0.75 0 1 0.875 0 1 1 0 1 0 0.125 1 0.125 0.125 1 0.25 0.125 1 0.375 0.125 1 0.5 0.125 1 0.625 0.125 1 0.75 0.125 1 0.875 0.125 1 1 0.125 1 0 0.25 1 0.125 0.25 1 0.25 0.25 1 0.375 0.25 1 0.5 0.25 1 0.625 0.25 1 0.75 0.25 1 0.875 0.25 1 1 0.25 1 0 0.375 1 0.125 0.375 1 0.25 0.375 1 0.375 0.375 1 0.5 0.375 1 0.625 0.375 1 0.75 0.375 1 0.875 0.375 1 1 0.375 1 0 0.5 1 0.125 0.5 1 0.25 0.5 1 0.375 0.5 1 0.5 0.5 1 0.625 0.5 1 0.75 0.5 1 0.875 0.5 1 1 0.5 1 0 0.625 1 0.125 0.625 1 0.25 0.625 1 0.375 0.625 1 0.5 0.625 1 0.625 0.625 1 0.75 0.625 1 0.875 0.625 1 1 0.625 1 0 0.75 1 0.125 0.75 1 0.25 0.75 1 0.375 0.75 1 0.5 0.75 1 0.625 0.75 1 0.75 0.75 1 0.875 0.75 1 1 0.75 1 0 0.875 1 0.125 0.875 1 0.25 0.875 1 0.375 0.875 1 0.5 0.875 1 0.625 0.875 1 0.75 0.875 1 0.875 0.875 1 1 0.875 1 0 1 1 0.125 1 1 0.25 1 1 0.375 1 1 0.5 1 1 0.625 1 1 0.75 1 1 0.875 1 1 1 1 1         </DataArray>
      </Points>
    </Piece>
  </StructuredGrid>
</VTKFile>
