# vtk DataFile Version 2.0
Reconstructed linear interface
ASCII
DATASET POLYDATA
POINTS 2496 float
0.544612 -0.015625 0
0.544612 -0.015625 -0.0078125
0.544711 -0.0078125 -0.0078125
0.544711 -0.0078125 0
0.544713 -0.0078125 0
0.544713 -0.0078125 -0.0078125
0.544747 0 -0.0078125
0.544747 0 0
0.544713 0.0078125 0
0.544713 0.0078125 -0.0078125
0.544747 0 -0.0078125
0.544747 0 0
0.544612 0.015625 0
0.544612 0.015625 -0.0078125
0.544711 0.0078125 -0.0078125
0.544711 0.0078125 0
0.544449 0.0234375 0
0.544449 0.0234375 -0.0078125
0.544612 0.015625 -0.0078125
0.544612 0.015625 0
0.544222 0.03125 -0.0078125
0.544222 0.03125 0
0.544448 0.0234375 0
0.544448 0.0234375 -0.0078125
0.543936 0.0390625 0
0.543936 0.0390625 -0.0078125
0.544221 0.03125 -0.0078125
0.544221 0.03125 0
0.543592 0.046875 0
0.543592 0.046875 -0.0078125
0.543935 0.0390625 -0.0078125
0.543935 0.0390625 0
0.543196 0.0546875 0
0.543196 0.0546875 -0.0078125
0.543591 0.046875 -0.0078125
0.543591 0.046875 0
0.542751 0.0625 0
0.542751 0.0625 -0.0078125
0.543194 0.0546875 -0.0078125
0.543194 0.0546875 0
0.542749 0.0625 -0.0078125
0.542749 0.0625 0
0.542263 0.0703125 0
0.542263 0.0703125 -0.0078125
0.542261 0.0703125 -0.0078125
0.542261 0.0703125 0
0.541738 0.078125 0
0.541738 0.078125 -0.0078125
0.541736 0.078125 -0.0078125
0.541736 0.078125 0
0.541184 0.0859375 0
0.541184 0.0859375 -0.0078125
0.541182 0.0859375 -0.0078125
0.541182 0.0859375 0
0.540609 0.09375 0
0.540609 0.09375 -0.0078125
0.540606 0.09375 -0.0078125
0.540606 0.09375 0
0.540022 0.101562 0
0.540022 0.101562 -0.0078125
0.540019 0.101562 -0.0078125
0.540019 0.101562 0
0.539434 0.109375 0
0.539434 0.109375 -0.0078125
0.538857 0.117188 0
0.539062 0.114396 0
0.539062 0.114396 -0.0078125
0.538857 0.117188 -0.0078125
0.539431 0.109375 0
0.539062 0.114383 0
0.539062 0.114383 -0.0078125
0.539431 0.109375 -0.0078125
0.538302 0.125 -0.0078125
0.538302 0.125 0
0.538853 0.117188 0
0.538853 0.117188 -0.0078125
0.537785 0.132812 0
0.537785 0.132812 -0.0078125
0.538298 0.125 -0.0078125
0.538298 0.125 0
0.544612 -0.015625 0.0078125
0.544612 -0.015625 0
0.544711 -0.0078125 0
0.544711 -0.0078125 0.0078125
0.544713 -0.0078125 0.0078125
0.544713 -0.0078125 0
0.544747 0 0
0.544747 0 0.0078125
0.544713 0.0078125 0.0078125
0.544713 0.0078125 0
0.544747 0 0
0.544747 0 0.0078125
0.544612 0.015625 0.0078125
0.544612 0.015625 0
0.544711 0.0078125 0
0.544711 0.0078125 0.0078125
0.544449 0.0234375 0.0078125
0.544449 0.0234375 0
0.544612 0.015625 0
0.544612 0.015625 0.0078125
0.544222 0.03125 0
0.544222 0.03125 0.0078125
0.544448 0.0234375 0.0078125
0.544448 0.0234375 0
0.543936 0.0390625 0.0078125
0.543936 0.0390625 0
0.544221 0.03125 0
0.544221 0.03125 0.0078125
0.543592 0.046875 0.0078125
0.543592 0.046875 0
0.543935 0.0390625 0
0.543935 0.0390625 0.0078125
0.543196 0.0546875 0.0078125
0.543196 0.0546875 0
0.543591 0.046875 0
0.543591 0.046875 0.0078125
0.542751 0.0625 0.0078125
0.542751 0.0625 0
0.543194 0.0546875 0
0.543194 0.0546875 0.0078125
0.542749 0.0625 0
0.542749 0.0625 0.0078125
0.542263 0.0703125 0.0078125
0.542263 0.0703125 0
0.542261 0.0703125 0
0.542261 0.0703125 0.0078125
0.541738 0.078125 0.0078125
0.541738 0.078125 0
0.541736 0.078125 0
0.541736 0.078125 0.0078125
0.541184 0.0859375 0.0078125
0.541184 0.0859375 0
0.541182 0.0859375 0
0.541182 0.0859375 0.0078125
0.540609 0.09375 0.0078125
0.540609 0.09375 0
0.540606 0.09375 0
0.540606 0.09375 0.0078125
0.540022 0.101562 0.0078125
0.540022 0.101562 0
0.540019 0.101562 0
0.540019 0.101562 0.0078125
0.539434 0.109375 0.0078125
0.539434 0.109375 0
0.538857 0.117188 0.0078125
0.539062 0.114396 0.0078125
0.539062 0.114396 0
0.538857 0.117188 0
0.539431 0.109375 0.0078125
0.539062 0.114383 0.0078125
0.539062 0.114383 0
0.539431 0.109375 0
0.538302 0.125 0
0.538302 0.125 0.0078125
0.538853 0.117188 0.0078125
0.538853 0.117188 0
0.537785 0.132812 0.0078125
0.537785 0.132812 0
0.538298 0.125 0
0.538298 0.125 0.0078125
0.544612 -0.015625 0.015625
0.544612 -0.015625 0.0078125
0.544711 -0.0078125 0.0078125
0.544711 -0.0078125 0.015625
0.544713 -0.0078125 0.015625
0.544713 -0.0078125 0.0078125
0.544747 0 0.0078125
0.544747 0 0.015625
0.544713 0.0078125 0.015625
0.544713 0.0078125 0.0078125
0.544747 0 0.0078125
0.544747 0 0.015625
0.544612 0.015625 0.015625
0.544612 0.015625 0.0078125
0.544711 0.0078125 0.0078125
0.544711 0.0078125 0.015625
0.544449 0.0234375 0.015625
0.544449 0.0234375 0.0078125
0.544612 0.015625 0.0078125
0.544612 0.015625 0.015625
0.544222 0.03125 0.0078125
0.544222 0.03125 0.015625
0.544448 0.0234375 0.015625
0.544448 0.0234375 0.0078125
0.543936 0.0390625 0.015625
0.543936 0.0390625 0.0078125
0.544221 0.03125 0.0078125
0.544221 0.03125 0.015625
0.543592 0.046875 0.015625
0.543592 0.046875 0.0078125
0.543935 0.0390625 0.0078125
0.543935 0.0390625 0.015625
0.543196 0.0546875 0.015625
0.543196 0.0546875 0.0078125
0.543591 0.046875 0.0078125
0.543591 0.046875 0.015625
0.542751 0.0625 0.015625
0.542751 0.0625 0.0078125
0.543194 0.0546875 0.0078125
0.543194 0.0546875 0.015625
0.542749 0.0625 0.0078125
0.542749 0.0625 0.015625
0.542263 0.0703125 0.015625
0.542263 0.0703125 0.0078125
0.542261 0.0703125 0.0078125
0.542261 0.0703125 0.015625
0.541738 0.078125 0.015625
0.541738 0.078125 0.0078125
0.541736 0.078125 0.0078125
0.541736 0.078125 0.015625
0.541184 0.0859375 0.015625
0.541184 0.0859375 0.0078125
0.541182 0.0859375 0.0078125
0.541182 0.0859375 0.015625
0.540609 0.09375 0.015625
0.540609 0.09375 0.0078125
0.540606 0.09375 0.0078125
0.540606 0.09375 0.015625
0.540022 0.101562 0.015625
0.540022 0.101562 0.0078125
0.540019 0.101562 0.0078125
0.540019 0.101562 0.015625
0.539434 0.109375 0.015625
0.539434 0.109375 0.0078125
0.538857 0.117188 0.015625
0.539062 0.114396 0.015625
0.539062 0.114396 0.0078125
0.538857 0.117188 0.0078125
0.539431 0.109375 0.015625
0.539062 0.114383 0.015625
0.539062 0.114383 0.0078125
0.539431 0.109375 0.0078125
0.538302 0.125 0.0078125
0.538302 0.125 0.015625
0.538853 0.117188 0.015625
0.538853 0.117188 0.0078125
0.537785 0.132812 0.015625
0.537785 0.132812 0.0078125
0.538298 0.125 0.0078125
0.538298 0.125 0.015625
0.544612 -0.015625 0.0234375
0.544612 -0.015625 0.015625
0.544711 -0.0078125 0.015625
0.544711 -0.0078125 0.0234375
0.544713 -0.0078125 0.0234375
0.544713 -0.0078125 0.015625
0.544747 0 0.015625
0.544747 0 0.0234375
0.544713 0.0078125 0.0234375
0.544713 0.0078125 0.015625
0.544747 0 0.015625
0.544747 0 0.0234375
0.544612 0.015625 0.0234375
0.544612 0.015625 0.015625
0.544711 0.0078125 0.015625
0.544711 0.0078125 0.0234375
0.544449 0.0234375 0.0234375
0.544449 0.0234375 0.015625
0.544612 0.015625 0.015625
0.544612 0.015625 0.0234375
0.544222 0.03125 0.015625
0.544222 0.03125 0.0234375
0.544448 0.0234375 0.0234375
0.544448 0.0234375 0.015625
0.543936 0.0390625 0.0234375
0.543936 0.0390625 0.015625
0.544221 0.03125 0.015625
0.544221 0.03125 0.0234375
0.543592 0.046875 0.0234375
0.543592 0.046875 0.015625
0.543935 0.0390625 0.015625
0.543935 0.0390625 0.0234375
0.543196 0.0546875 0.0234375
0.543196 0.0546875 0.015625
0.543591 0.046875 0.015625
0.543591 0.046875 0.0234375
0.542751 0.0625 0.0234375
0.542751 0.0625 0.015625
0.543194 0.0546875 0.015625
0.543194 0.0546875 0.0234375
0.542749 0.0625 0.015625
0.542749 0.0625 0.0234375
0.542263 0.0703125 0.0234375
0.542263 0.0703125 0.015625
0.542261 0.0703125 0.015625
0.542261 0.0703125 0.0234375
0.541738 0.078125 0.0234375
0.541738 0.078125 0.015625
0.541736 0.078125 0.015625
0.541736 0.078125 0.0234375
0.541184 0.0859375 0.0234375
0.541184 0.0859375 0.015625
0.541182 0.0859375 0.015625
0.541182 0.0859375 0.0234375
0.540609 0.09375 0.0234375
0.540609 0.09375 0.015625
0.540606 0.09375 0.015625
0.540606 0.09375 0.0234375
0.540022 0.101562 0.0234375
0.540022 0.101562 0.015625
0.540019 0.101562 0.015625
0.540019 0.101562 0.0234375
0.539434 0.109375 0.0234375
0.539434 0.109375 0.015625
0.538857 0.117188 0.0234375
0.539062 0.114396 0.0234375
0.539062 0.114396 0.015625
0.538857 0.117188 0.015625
0.539431 0.109375 0.0234375
0.539062 0.114383 0.0234375
0.539062 0.114383 0.015625
0.539431 0.109375 0.015625
0.538302 0.125 0.015625
0.538302 0.125 0.0234375
0.538853 0.117188 0.0234375
0.538853 0.117188 0.015625
0.537785 0.132812 0.0234375
0.537785 0.132812 0.015625
0.538298 0.125 0.015625
0.538298 0.125 0.0234375
0.538302 0.125 -0.0078125
0.538302 0.125 0
0.538853 0.117188 0
0.538853 0.117188 -0.0078125
0.537785 0.132812 0
0.537785 0.132812 -0.0078125
0.538298 0.125 -0.0078125
0.538298 0.125 0
0.537322 0.140625 0
0.537322 0.140625 -0.0078125
0.537781 0.132812 -0.0078125
0.537781 0.132812 0
0.536931 0.148438 0
0.536931 0.148438 -0.0078125
0.537317 0.140625 -0.0078125
0.537317 0.140625 0
0.536631 0.15625 0
0.536631 0.15625 -0.0078125
0.536926 0.148438 -0.0078125
0.536926 0.148438 0
0.536443 0.164062 0
0.536443 0.164062 -0.0078125
0.536626 0.15625 -0.0078125
0.536626 0.15625 0
0.53639 0.171875 -0.0078125
0.53639 0.171875 0
0.536437 0.164062 0
0.536437 0.164062 -0.0078125
0.536383 0.171875 0
0.536383 0.171875 -0.0078125
0.536498 0.179688 -0.0078125
0.536498 0.179688 0
0.53649 0.179688 0
0.53649 0.179688 -0.0078125
0.536795 0.1875 -0.0078125
0.536795 0.1875 0
0.536786 0.1875 0
0.536786 0.1875 -0.0078125
0.537314 0.195312 -0.0078125
0.537314 0.195312 0
0.537305 0.195312 -0.0078125
0.537305 0.195312 0
0.538092 0.203125 0
0.538092 0.203125 -0.0078125
0.538079 0.203125 0
0.539062 0.210192 0
0.539062 0.210192 -0.0078125
0.538079 0.203125 -0.0078125
0.539176 0.210938 0
0.539062 0.210121 0
0.539062 0.210121 -0.0078125
0.539176 0.210938 -0.0078125
0.540596 0.21875 -0.0078125
0.540596 0.21875 0
0.53915 0.210938 0
0.53915 0.210938 -0.0078125
0.542448 0.226562 0
0.542448 0.226562 -0.0078125
0.540583 0.21875 -0.0078125
0.540583 0.21875 0
0.542435 0.226562 -0.0078125
0.542435 0.226562 0
0.544773 0.234375 0
0.544773 0.234375 -0.0078125
0.544727 0.234375 0
0.546875 0.240138 0
0.546875 0.240138 -0.0078125
0.544727 0.234375 -0.0078125
0.547669 0.242188 0
0.546875 0.240058 0
0.546875 0.240058 -0.0078125
[...]
CELL_DATA 624
SCALARS c float
LOOKUP_TABLE default
-1.00193e+06
-1.00093e+06
-999931
-998931
-997931
-996931
-995931
-994931
-993931
-992931
-991931
-990931
-989931
-988931
-987931
-986931
-985932
-985931
-984932
-983932
-1931
-931
69
1069
2069
3069
4069
5069
6069
7069
8069
9069
10069
11069
12069
13069
14068
14069
15068
16068
998069
999069
1.00007e+06
1.00107e+06
1.00207e+06
1.00307e+06
1.00407e+06
1.00507e+06
1.00607e+06
1.00707e+06
1.00807e+06
1.00907e+06
1.01007e+06
1.01107e+06
1.01207e+06
1.01307e+06
1.01407e+06
1.01407e+06
1.01507e+06
1.01607e+06
1.99807e+06
1.99907e+06
2.00007e+06
2.00107e+06
2.00207e+06
2.00307e+06
2.00407e+06
2.00507e+06
2.00607e+06
2.00707e+06
2.00807e+06
2.00907e+06
2.01007e+06
2.01107e+06
2.01207e+06
2.01307e+06
2.01407e+06
2.01407e+06
2.01507e+06
2.01607e+06
-984932
-983932
-982932
-981932
-980932
-979932
-978932
-977932
-976932
-975932
-974932
-973932
-973931
-972931
-971931
-970931
-969931
-969930
-968930
-967930
-967929
15068
16068
17068
18068
19068
20068
21068
22068
23068
24068
25068
26068
26069
27069
28069
29069
30069
30070
31070
32070
32071
1.01507e+06
1.01607e+06
1.01707e+06
1.01807e+06
1.01907e+06
1.02007e+06
1.02107e+06
1.02207e+06
1.02307e+06
1.02407e+06
1.02507e+06
1.02607e+06
1.02607e+06
1.02707e+06
1.02807e+06
1.02907e+06
1.03007e+06
1.03007e+06
1.03107e+06
1.03207e+06
1.03207e+06
2.01507e+06
2.01607e+06
2.01707e+06
2.01807e+06
2.01907e+06
2.02007e+06
2.02107e+06
2.02207e+06
2.02307e+06
2.02407e+06
2.02507e+06
2.02607e+06
2.02607e+06
2.02707e+06
2.02807e+06
2.02907e+06
2.03007e+06
2.03007e+06
2.03107e+06
2.03207e+06
2.03207e+06
-968930
-967930
-967929
-966929
-965929
-965928
-964928
-964927
-963927
-963926
-963925
-962925
-962924
-962923
-961923
-961922
-961921
-961920
31070
32070
32071
33071
34071
34072
35072
35073
36073
36074
36075
37075
37076
37077
38077
38078
38079
38080
1.03107e+06
1.03207e+06
1.03207e+06
1.03307e+06
1.03407e+06
1.03407e+06
1.03507e+06
1.03507e+06
1.03607e+06
1.03607e+06
1.03608e+06
1.03708e+06
1.03708e+06
1.03708e+06
1.03808e+06
1.03808e+06
1.03808e+06
1.03808e+06
2.03107e+06
2.03207e+06
2.03207e+06
2.03307e+06
2.03407e+06
2.03407e+06
2.03507e+06
2.03507e+06
2.03607e+06
2.03607e+06
2.03608e+06
2.03708e+06
2.03708e+06
2.03708e+06
2.03808e+06
2.03808e+06
2.03808e+06
2.03808e+06
-964905
-964904
-963908
-963907
-963906
-963905
-962911
-962910
-962909
-962908
-961921
-961920
-961919
-961918
-961917
-961916
-961915
-961914
-961913
-961912
-961911
35095
35096
36092
36093
36094
36095
37089
37090
37091
37092
38079
38080
38081
38082
38083
38084
38085
38086
38087
38088
38089
1.0351e+06
1.0351e+06
1.03609e+06
1.03609e+06
1.03609e+06
1.0361e+06
1.03709e+06
1.03709e+06
1.03709e+06
1.03709e+06
1.03808e+06
1.03808e+06
1.03808e+06
1.03808e+06
1.03808e+06
1.03808e+06
1.03808e+06
1.03809e+06
1.03809e+06
1.03809e+06
1.03809e+06
2.0351e+06
2.0351e+06
2.03609e+06
2.03609e+06
2.03609e+06
2.0361e+06
2.03709e+06
2.03709e+06
2.03709e+06
2.03709e+06
2.03808e+06
2.03808e+06
2.03808e+06
2.03808e+06
2.03808e+06
2.03808e+06
2.03808e+06
2.03809e+06
2.03809e+06
2.03809e+06
2.03809e+06
-978888
-977888
-976889
-976888
-975890
-975889
-974891
-974890
-973892
-973891
-972893
-972892
-971894
-971893
-970895
-970894
-969897
-969896
-969895
-968898
-968897
-967899
-967898
21112
22112
23111
23112
24110
24111
25109
25110
26108
26109
27107
27108
28106
28107
29105
29106
30103
30104
30105
31102
31103
32101
32102
1.02111e+06
1.02211e+06
1.02311e+06
1.02311e+06
1.02411e+06
1.02411e+06
1.02511e+06
1.02511e+06
1.02611e+06
1.02611e+06
1.02711e+06
1.02711e+06
1.02811e+06
1.02811e+06
1.0291e+06
1.02911e+06
1.0301e+06
1.0301e+06
1.0301e+06
1.0311e+06
1.0311e+06
1.0321e+06
1.0321e+06
2.02111e+06
2.02211e+06
2.02311e+06
2.02311e+06
2.02411e+06
2.02411e+06
2.02511e+06
2.02511e+06
2.02611e+06
2.02611e+06
2.02711e+06
2.02711e+06
2.02811e+06
2.02811e+06
2.0291e+06
2.02911e+06
2.0301e+06
2.0301e+06
2.0301e+06
2.0311e+06
2.0311e+06
2.0321e+06
2.0321e+06
-968898
-968897
-967899
-967898
-966901
-966900
-966899
-965903
-965902
-965901
-964905
-964904
-964903
-963905
31102
31103
32101
32102
33099
33100
33101
34097
34098
34099
35095
35096
35097
36095
1.0311e+06
1.0311e+06
1.0321e+06
1.0321e+06
1.0331e+06
1.0331e+06
1.0331e+06
1.0341e+06
1.0341e+06
1.0341e+06
1.0351e+06
1.0351e+06
1.0351e+06
1.0361e+06
2.0311e+06
2.0311e+06
2.0321e+06
2.0321e+06
2.0331e+06
2.0331e+06
2.0331e+06
2.0341e+06
2.0341e+06
2.0341e+06
2.0351e+06
2.0351e+06
2.0351e+06
2.0361e+06
-1.00188e+06
-1.00088e+06
-999880
-998880
-997881
-997880
-996881
-995881
-994881
-993881
-992881
-991882
-991881
-990882
-989882
-988882
-987883
-987882
-986883
-985884
-985883
-984884
-983885
-983884
-1880
-880
120
1120
2119
2120
3119
4119
5119
6119
7119
8118
8119
9118
10118
11118
12117
12118
13117
14116
14117
15116
16115
16116
998120
999120
1.00012e+06
1.00112e+06
1.00212e+06
1.00212e+06
1.00312e+06
1.00412e+06
1.00512e+06
1.00612e+06
1.00712e+06
1.00812e+06
1.00812e+06
1.00912e+06
1.01012e+06
1.01112e+06
1.01212e+06
1.01212e+06
1.01312e+06
1.01412e+06
1.01412e+06
1.01512e+06
1.01612e+06
1.01612e+06
1.99812e+06
1.99912e+06
2.00012e+06
2.00112e+06
2.00212e+06
2.00212e+06
2.00312e+06
2.00412e+06
2.00512e+06
2.00612e+06
2.00712e+06
2.00812e+06
2.00812e+06
2.00912e+06
2.01012e+06
2.01112e+06
2.01212e+06
2.01212e+06
2.01312e+06
2.01412e+06
2.01412e+06
2.01512e+06
2.01612e+06
2.01612e+06
-984884
-983885
-983884
-982885
-981886
-981885
-980886
-979887
-979886
-978888
-978887
-977888
-976889
-976888
-975889
15116
16115
16116
17115
18114
18115
19114
20113
20114
21112
21113
22112
23111
23112
24111
1.01512e+06
1.01612e+06
1.01612e+06
1.01712e+06
1.01811e+06
1.01812e+06
1.01911e+06
1.02011e+06
1.02011e+06
1.02111e+06
1.02111e+06
1.02211e+06
1.02311e+06
1.02311e+06
1.02411e+06
2.01512e+06
2.01612e+06
2.01612e+06
2.01712e+06
2.01811e+06
2.01812e+06
2.01911e+06
2.02011e+06
2.02011e+06
2.02111e+06
2.02111e+06
2.02211e+06
2.02311e+06
2.02311e+06
2.02411e+06
