# vtk DataFile Version 2.0
Reconstructed linear interface
ASCII
DATASET POLYDATA
POINTS 2592 float
0.912582 -0.0078125 0
0.912582 -0.0078125 -0.0078125
0.91262 -0.015625 -0.0078125
0.91262 -0.015625 0
0.912565 0 0
0.912565 0 -0.0078125
0.91258 -0.0078125 -0.0078125
0.91258 -0.0078125 0
0.912565 0 0
0.912565 0 -0.0078125
0.91258 0.0078125 -0.0078125
0.91258 0.0078125 0
0.912582 0.0078125 0
0.912582 0.0078125 -0.0078125
0.91262 0.015625 -0.0078125
0.91262 0.015625 0
0.912618 0.015625 0
0.912618 0.015625 -0.0078125
0.912682 0.0234375 -0.0078125
0.912682 0.0234375 0
0.912683 0.0234375 -0.0078125
0.912683 0.0234375 0
0.912772 0.03125 0
0.912772 0.03125 -0.0078125
0.912771 0.03125 -0.0078125
0.912771 0.03125 0
0.912885 0.0390625 0
0.912885 0.0390625 -0.0078125
0.912885 0.0390625 -0.0078125
0.912885 0.0390625 0
0.913027 0.046875 0
0.913027 0.046875 -0.0078125
0.913026 0.046875 -0.0078125
0.913026 0.046875 0
0.913195 0.0546875 0
0.913195 0.0546875 -0.0078125
0.913195 0.0546875 -0.0078125
0.913195 0.0546875 0
0.913391 0.0625 0
0.913391 0.0625 -0.0078125
0.913391 0.0625 0
0.913391 0.0625 -0.0078125
0.913618 0.0703125 -0.0078125
0.913618 0.0703125 0
0.913617 0.0703125 -0.0078125
0.913617 0.0703125 0
0.913875 0.078125 0
0.913875 0.078125 -0.0078125
0.913874 0.078125 0
0.914062 0.0831856 0
0.914062 0.0831856 -0.0078125
0.913874 0.078125 -0.0078125
0.914165 0.0859375 0
0.914062 0.083182 0
0.914062 0.083182 -0.0078125
0.914165 0.0859375 -0.0078125
0.914489 0.09375 -0.0078125
0.914489 0.09375 0
0.914164 0.0859375 0
0.914164 0.0859375 -0.0078125
0.91485 0.101562 0
0.91485 0.101562 -0.0078125
0.914489 0.09375 -0.0078125
0.914489 0.09375 0
0.915249 0.109375 -0.0078125
0.915249 0.109375 0
0.914849 0.101562 0
0.914849 0.101562 -0.0078125
0.91569 0.117188 -0.0078125
0.91569 0.117188 0
0.915249 0.109375 0
0.915249 0.109375 -0.0078125
0.916176 0.125 0
0.916176 0.125 -0.0078125
0.91569 0.117188 -0.0078125
0.91569 0.117188 0
0.916708 0.132812 0
0.916708 0.132812 -0.0078125
0.916175 0.125 -0.0078125
0.916175 0.125 0
0.912582 -0.0078125 0.0078125
0.912582 -0.0078125 0
0.91262 -0.015625 0
0.91262 -0.015625 0.0078125
0.912565 0 0.0078125
0.912565 0 0
0.91258 -0.0078125 0
0.91258 -0.0078125 0.0078125
0.912565 0 0.0078125
0.912565 0 0
0.91258 0.0078125 0
0.91258 0.0078125 0.0078125
0.912582 0.0078125 0.0078125
0.912582 0.0078125 0
0.91262 0.015625 0
0.91262 0.015625 0.0078125
0.912618 0.015625 0.0078125
0.912618 0.015625 0
0.912682 0.0234375 0
0.912682 0.0234375 0.0078125
0.912683 0.0234375 0
0.912683 0.0234375 0.0078125
0.912772 0.03125 0.0078125
0.912772 0.03125 0
0.912771 0.03125 0
0.912771 0.03125 0.0078125
0.912885 0.0390625 0.0078125
0.912885 0.0390625 0
0.912885 0.0390625 0
0.912885 0.0390625 0.0078125
0.913027 0.046875 0.0078125
0.913027 0.046875 0
0.913026 0.046875 0
0.913026 0.046875 0.0078125
0.913195 0.0546875 0.0078125
0.913195 0.0546875 0
0.913195 0.0546875 0
0.913195 0.0546875 0.0078125
0.913391 0.0625 0.0078125
0.913391 0.0625 0
0.913391 0.0625 0.0078125
0.913391 0.0625 0
0.913618 0.0703125 0
0.913618 0.0703125 0.0078125
0.913617 0.0703125 0
0.913617 0.0703125 0.0078125
0.913875 0.078125 0.0078125
0.913875 0.078125 0
0.913874 0.078125 0.0078125
0.914062 0.0831856 0.0078125
0.914062 0.0831856 0
0.913874 0.078125 0
0.914165 0.0859375 0.0078125
0.914062 0.083182 0.0078125
0.914062 0.083182 0
0.914165 0.0859375 0
0.914489 0.09375 0
0.914489 0.09375 0.0078125
0.914164 0.0859375 0.0078125
0.914164 0.0859375 0
0.91485 0.101562 0.0078125
0.91485 0.101562 0
0.914489 0.09375 0
0.914489 0.09375 0.0078125
0.915249 0.109375 0
0.915249 0.109375 0.0078125
0.914849 0.101562 0.0078125
0.914849 0.101562 0
0.91569 0.117188 0
0.91569 0.117188 0.0078125
0.915249 0.109375 0.0078125
0.915249 0.109375 0
0.916176 0.125 0.0078125
0.916176 0.125 0
0.91569 0.117188 0
0.91569 0.117188 0.0078125
0.916708 0.132812 0.0078125
0.916708 0.132812 0
0.916175 0.125 0
0.916175 0.125 0.0078125
0.912582 -0.0078125 0.015625
0.912582 -0.0078125 0.0078125
0.91262 -0.015625 0.0078125
0.91262 -0.015625 0.015625
0.912565 0 0.015625
0.912565 0 0.0078125
0.91258 -0.0078125 0.0078125
0.91258 -0.0078125 0.015625
0.912565 0 0.015625
0.912565 0 0.0078125
0.91258 0.0078125 0.0078125
0.91258 0.0078125 0.015625
0.912582 0.0078125 0.015625
0.912582 0.0078125 0.0078125
0.91262 0.015625 0.0078125
0.91262 0.015625 0.015625
0.912618 0.015625 0.015625
0.912618 0.015625 0.0078125
0.912682 0.0234375 0.0078125
0.912682 0.0234375 0.015625
0.912683 0.0234375 0.0078125
0.912683 0.0234375 0.015625
0.912772 0.03125 0.015625
0.912772 0.03125 0.0078125
0.912771 0.03125 0.0078125
0.912771 0.03125 0.015625
0.912885 0.0390625 0.015625
0.912885 0.0390625 0.0078125
0.912885 0.0390625 0.0078125
0.912885 0.0390625 0.015625
0.913027 0.046875 0.015625
0.913027 0.046875 0.0078125
0.913026 0.046875 0.0078125
0.913026 0.046875 0.015625
0.913195 0.0546875 0.015625
0.913195 0.0546875 0.0078125
0.913195 0.0546875 0.0078125
0.913195 0.0546875 0.015625
0.913391 0.0625 0.015625
0.913391 0.0625 0.0078125
0.913391 0.0625 0.015625
0.913391 0.0625 0.0078125
0.913618 0.0703125 0.0078125
0.913618 0.0703125 0.015625
0.913617 0.0703125 0.0078125
0.913617 0.0703125 0.015625
0.913875 0.078125 0.015625
0.913875 0.078125 0.0078125
0.913874 0.078125 0.015625
0.914062 0.0831856 0.015625
0.914062 0.0831856 0.0078125
0.913874 0.078125 0.0078125
0.914165 0.0859375 0.015625
0.914062 0.083182 0.015625
0.914062 0.083182 0.0078125
0.914165 0.0859375 0.0078125
0.914489 0.09375 0.0078125
0.914489 0.09375 0.015625
0.914164 0.0859375 0.015625
0.914164 0.0859375 0.0078125
0.91485 0.101562 0.015625
0.91485 0.101562 0.0078125
0.914489 0.09375 0.0078125
0.914489 0.09375 0.015625
0.915249 0.109375 0.0078125
0.915249 0.109375 0.015625
0.914849 0.101562 0.015625
0.914849 0.101562 0.0078125
0.91569 0.117188 0.0078125
0.91569 0.117188 0.015625
0.915249 0.109375 0.015625
0.915249 0.109375 0.0078125
0.916176 0.125 0.015625
0.916176 0.125 0.0078125
0.91569 0.117188 0.0078125
0.91569 0.117188 0.015625
0.916708 0.132812 0.015625
0.916708 0.132812 0.0078125
0.916175 0.125 0.0078125
0.916175 0.125 0.015625
0.912582 -0.0078125 0.0234375
0.912582 -0.0078125 0.015625
0.91262 -0.015625 0.015625
0.91262 -0.015625 0.0234375
0.912565 0 0.0234375
0.912565 0 0.015625
0.91258 -0.0078125 0.015625
0.91258 -0.0078125 0.0234375
0.912565 0 0.0234375
0.912565 0 0.015625
0.91258 0.0078125 0.015625
0.91258 0.0078125 0.0234375
0.912582 0.0078125 0.0234375
0.912582 0.0078125 0.015625
0.91262 0.015625 0.015625
0.91262 0.015625 0.0234375
0.912618 0.015625 0.0234375
0.912618 0.015625 0.015625
0.912682 0.0234375 0.015625
0.912682 0.0234375 0.0234375
0.912683 0.0234375 0.015625
0.912683 0.0234375 0.0234375
0.912772 0.03125 0.0234375
0.912772 0.03125 0.015625
0.912771 0.03125 0.015625
0.912771 0.03125 0.0234375
0.912885 0.0390625 0.0234375
0.912885 0.0390625 0.015625
0.912885 0.0390625 0.015625
0.912885 0.0390625 0.0234375
0.913027 0.046875 0.0234375
0.913027 0.046875 0.015625
0.913026 0.046875 0.015625
0.913026 0.046875 0.0234375
0.913195 0.0546875 0.0234375
0.913195 0.0546875 0.015625
0.913195 0.0546875 0.015625
0.913195 0.0546875 0.0234375
0.913391 0.0625 0.0234375
0.913391 0.0625 0.015625
0.913391 0.0625 0.0234375
0.913391 0.0625 0.015625
0.913618 0.0703125 0.015625
0.913618 0.0703125 0.0234375
0.913617 0.0703125 0.015625
0.913617 0.0703125 0.0234375
0.913875 0.078125 0.0234375
0.913875 0.078125 0.015625
0.913874 0.078125 0.0234375
0.914062 0.0831856 0.0234375
0.914062 0.0831856 0.015625
0.913874 0.078125 0.015625
0.914165 0.0859375 0.0234375
0.914062 0.083182 0.0234375
0.914062 0.083182 0.015625
0.914165 0.0859375 0.015625
0.914489 0.09375 0.015625
0.914489 0.09375 0.0234375
0.914164 0.0859375 0.0234375
0.914164 0.0859375 0.015625
0.91485 0.101562 0.0234375
0.91485 0.101562 0.015625
0.914489 0.09375 0.015625
0.914489 0.09375 0.0234375
0.915249 0.109375 0.015625
0.915249 0.109375 0.0234375
0.914849 0.101562 0.0234375
0.914849 0.101562 0.015625
0.91569 0.117188 0.015625
0.91569 0.117188 0.0234375
0.915249 0.109375 0.0234375
0.915249 0.109375 0.015625
0.916176 0.125 0.0234375
0.916176 0.125 0.015625
0.91569 0.117188 0.015625
0.91569 0.117188 0.0234375
0.916708 0.132812 0.0234375
0.916708 0.132812 0.015625
0.916175 0.125 0.015625
0.916175 0.125 0.0234375
0.916176 0.125 0
0.916176 0.125 -0.0078125
0.91569 0.117188 -0.0078125
0.91569 0.117188 0
0.916708 0.132812 0
0.916708 0.132812 -0.0078125
0.916175 0.125 -0.0078125
0.916175 0.125 0
0.917292 0.140625 0
0.917292 0.140625 -0.0078125
0.916707 0.132812 -0.0078125
0.916707 0.132812 0
0.91793 0.148438 0
0.91793 0.148438 -0.0078125
0.917291 0.140625 -0.0078125
0.917291 0.140625 0
0.917929 0.148438 0
0.917929 0.148438 -0.0078125
0.918627 0.15625 -0.0078125
0.918627 0.15625 0
0.918626 0.15625 0
0.918626 0.15625 -0.0078125
0.919388 0.164062 -0.0078125
0.919388 0.164062 0
0.919386 0.164062 0
0.919386 0.164062 -0.0078125
0.920218 0.171875 -0.0078125
0.920218 0.171875 0
0.920217 0.171875 -0.0078125
0.920217 0.171875 0
0.921124 0.179688 0
0.921124 0.179688 -0.0078125
0.921122 0.179688 0
0.921875 0.185628 0
0.921875 0.185628 -0.0078125
0.921122 0.179688 -0.0078125
0.922114 0.1875 0
0.921875 0.185618 0
0.921875 0.185618 -0.0078125
0.922114 0.1875 -0.0078125
0.923193 0.195312 -0.0078125
0.923193 0.195312 0
0.92211 0.1875 0
0.92211 0.1875 -0.0078125
0.924376 0.203125 -0.0078125
0.924376 0.203125 0
0.923192 0.195312 0
0.923192 0.195312 -0.0078125
0.925667 0.210938 -0.0078125
0.925667 0.210938 0
0.924374 0.203125 0
0.924374 0.203125 -0.0078125
0.925663 0.210938 0
0.925663 0.210938 -0.0078125
0.927076 0.21875 -0.0078125
0.927076 0.21875 0
0.927072 0.21875 -0.0078125
0.927072 0.21875 0
0.928618 0.226562 0
0.928618 0.226562 -0.0078125
0.928609 0.226562 0
0.929688 0.231517 0
0.929688 0.231517 -0.0078125
0.928609 0.226562 -0.0078125
0.930315 0.234375 0
0.929688 0.231491 0
0.929688 0.231491 -0.0078125
0.930315 0.234375 -0.0078125
0.932184 0.242188 -0.0078125
0.932184 0.242188 0
0.930308 0.234375 0
0.930308 0.234375 -0.0078125
0.934246 0.25 -0.0078125
[...]
CELL_DATA 648
SCALARS c float
LOOKUP_TABLE default
-1.00188e+06
-1.00088e+06
-999884
-998884
-997884
-996884
-995884
-994884
-993884
-992884
-991884
-990884
-989884
-989883
-988883
-987883
-986883
-985883
-984883
-983883
-1884
-884
116
1116
2116
3116
4116
5116
6116
7116
8116
9116
10116
10117
11117
12117
13117
14117
15117
16117
998116
999116
1.00012e+06
1.00112e+06
1.00212e+06
1.00312e+06
1.00412e+06
1.00512e+06
1.00612e+06
1.00712e+06
1.00812e+06
1.00912e+06
1.01012e+06
1.01012e+06
1.01112e+06
1.01212e+06
1.01312e+06
1.01412e+06
1.01512e+06
1.01612e+06
1.99812e+06
1.99912e+06
2.00012e+06
2.00112e+06
2.00212e+06
2.00312e+06
2.00412e+06
2.00512e+06
2.00612e+06
2.00712e+06
2.00812e+06
2.00912e+06
2.01012e+06
2.01012e+06
2.01112e+06
2.01212e+06
2.01312e+06
2.01412e+06
2.01512e+06
2.01612e+06
-984883
-983883
-982883
-981883
-980883
-979883
-978883
-977883
-976883
-976882
-975882
-974882
-973882
-972882
-971882
-970882
-970881
-969881
-968881
-967881
15117
16117
17117
18117
19117
20117
21117
22117
23117
23118
24118
25118
26118
27118
28118
29118
29119
30119
31119
32119
1.01512e+06
1.01612e+06
1.01712e+06
1.01812e+06
1.01912e+06
1.02012e+06
1.02112e+06
1.02212e+06
1.02312e+06
1.02312e+06
1.02412e+06
1.02512e+06
1.02612e+06
1.02712e+06
1.02812e+06
1.02912e+06
1.02912e+06
1.03012e+06
1.03112e+06
1.03212e+06
2.01512e+06
2.01612e+06
2.01712e+06
2.01812e+06
2.01912e+06
2.02012e+06
2.02112e+06
2.02212e+06
2.02312e+06
2.02312e+06
2.02412e+06
2.02512e+06
2.02612e+06
2.02712e+06
2.02812e+06
2.02912e+06
2.02912e+06
2.03012e+06
2.03112e+06
2.03212e+06
-968881
-967881
-966881
-966880
-965880
-964880
-963880
-963879
-962879
-961879
-961878
-960878
-960877
-959877
-959876
-958876
-958875
-957875
-957874
-956874
-956873
-956872
31119
32119
33119
33120
34120
35120
36120
36121
37121
38121
38122
39122
39123
40123
40124
41124
41125
42125
42126
43126
43127
43128
1.03112e+06
1.03212e+06
1.03312e+06
1.03312e+06
1.03412e+06
1.03512e+06
1.03612e+06
1.03612e+06
1.03712e+06
1.03812e+06
1.03812e+06
1.03912e+06
1.03912e+06
1.04012e+06
1.04012e+06
1.04112e+06
1.04112e+06
1.04212e+06
1.04213e+06
1.04313e+06
1.04313e+06
1.04313e+06
2.03112e+06
2.03212e+06
2.03312e+06
2.03312e+06
2.03412e+06
2.03512e+06
2.03612e+06
2.03612e+06
2.03712e+06
2.03812e+06
2.03812e+06
2.03912e+06
2.03912e+06
2.04012e+06
2.04012e+06
2.04112e+06
2.04112e+06
2.04212e+06
2.04213e+06
2.04313e+06
2.04313e+06
2.04313e+06
-962856
-961857
-961856
-960859
-960858
-960857
-959860
-959859
-958862
-958861
-958860
-957864
-957863
-957862
-956873
-956872
-956871
-956870
-956869
-956868
-956867
-956866
-956865
-956864
37144
38143
38144
39141
39142
39143
40140
40141
41138
41139
41140
42136
42137
42138
43127
43128
43129
43130
43131
43132
43133
43134
43135
43136
1.03714e+06
1.03814e+06
1.03814e+06
1.03914e+06
1.03914e+06
1.03914e+06
1.04014e+06
1.04014e+06
1.04114e+06
1.04114e+06
1.04114e+06
1.04214e+06
1.04214e+06
1.04214e+06
1.04313e+06
1.04313e+06
1.04313e+06
1.04313e+06
1.04313e+06
1.04313e+06
1.04313e+06
1.04313e+06
1.04314e+06
1.04314e+06
2.03714e+06
2.03814e+06
2.03814e+06
2.03914e+06
2.03914e+06
2.03914e+06
2.04014e+06
2.04014e+06
2.04114e+06
2.04114e+06
2.04114e+06
2.04214e+06
2.04214e+06
2.04214e+06
2.04313e+06
2.04313e+06
2.04313e+06
2.04313e+06
2.04313e+06
2.04313e+06
2.04313e+06
2.04313e+06
2.04314e+06
2.04314e+06
-983840
16160
1.01616e+06
2.01616e+06
-983840
-982840
-981841
-981840
-980841
-979842
-979841
-978842
-977843
-977842
-976843
-975844
-975843
-974845
-974844
-973845
-972846
-972845
-971847
-971846
-970848
-970847
-969849
-969848
-968849
-967850
-967849
16160
17160
18159
18160
19159
20158
20159
21158
22157
22158
23157
24156
24157
25155
25156
26155
27154
27155
28153
28154
29152
29153
30151
30152
31151
32150
32151
1.01616e+06
1.01716e+06
1.01816e+06
1.01816e+06
1.01916e+06
1.02016e+06
1.02016e+06
1.02116e+06
1.02216e+06
1.02216e+06
1.02316e+06
1.02416e+06
1.02416e+06
1.02516e+06
1.02516e+06
1.02616e+06
1.02715e+06
1.02716e+06
1.02815e+06
1.02815e+06
1.02915e+06
1.02915e+06
1.03015e+06
1.03015e+06
1.03115e+06
1.03215e+06
1.03215e+06
2.01616e+06
2.01716e+06
2.01816e+06
2.01816e+06
2.01916e+06
2.02016e+06
2.02016e+06
2.02116e+06
2.02216e+06
2.02216e+06
2.02316e+06
2.02416e+06
2.02416e+06
2.02516e+06
2.02516e+06
2.02616e+06
2.02715e+06
2.02716e+06
2.02815e+06
2.02815e+06
2.02915e+06
2.02915e+06
2.03015e+06
2.03015e+06
2.03115e+06
2.03215e+06
2.03215e+06
-968849
-967850
-967849
-966851
-966850
-965852
-965851
-964853
-964852
-963855
-963854
-963853
-962856
-962855
-961857
-961856
-960857
31151
32150
32151
33149
33150
34148
34149
35147
35148
36145
36146
36147
37144
37145
38143
38144
39143
1.03115e+06
1.03215e+06
1.03215e+06
1.03315e+06
1.03315e+06
1.03415e+06
1.03415e+06
1.03515e+06
1.03515e+06
1.03614e+06
1.03615e+06
1.03615e+06
1.03714e+06
1.03714e+06
1.03814e+06
1.03814e+06
1.03914e+06
2.03115e+06
2.03215e+06
2.03215e+06
2.03315e+06
2.03315e+06
2.03415e+06
2.03415e+06
2.03515e+06
2.03515e+06
2.03614e+06
2.03615e+06
2.03615e+06
2.03714e+06
2.03714e+06
2.03814e+06
2.03814e+06
2.03914e+06
-1.00184e+06
-1.00084e+06
-999836
-998836
-997837
-997836
-996837
-995837
-994837
-993837
-992837
-991837
-990838
-990837
-989838
-988838
-987838
-986839
-986838
-985839
-984839
-983840
-983839
-1836
-836
164
1164
2163
2164
3163
4163
5163
6163
7163
8163
9162
9163
10162
11162
12162
13161
13162
14161
15161
16160
16161
998164
999164
1.00016e+06
1.00116e+06
1.00216e+06
1.00216e+06
1.00316e+06
1.00416e+06
1.00516e+06
1.00616e+06
1.00716e+06
1.00816e+06
1.00916e+06
1.00916e+06
1.01016e+06
1.01116e+06
1.01216e+06
1.01316e+06
1.01316e+06
1.01416e+06
1.01516e+06
1.01616e+06
1.01616e+06
1.99816e+06
1.99916e+06
2.00016e+06
2.00116e+06
2.00216e+06
2.00216e+06
2.00316e+06
2.00416e+06
2.00516e+06
2.00616e+06
2.00716e+06
2.00816e+06
2.00916e+06
2.00916e+06
2.01016e+06
2.01116e+06
2.01216e+06
2.01316e+06
2.01316e+06
2.01416e+06
2.01516e+06
2.01616e+06
2.01616e+06
-984839
-983840
-983839
-982840
-981841
-981840
-980841
-979841
15161
16160
16161
17160
18159
18160
19159
20159
1.01516e+06
1.01616e+06
1.01616e+06
1.01716e+06
1.01816e+06
1.01816e+06
1.01916e+06
1.02016e+06
2.01516e+06
2.01616e+06
2.01616e+06
2.01716e+06
2.01816e+06
2.01816e+06
2.01916e+06
2.02016e+06
