# vtk DataFile Version 2.0
Reconstructed linear interface
ASCII
DATASET POLYDATA
POINTS 2896 float
0.341159 -0.0078125 -0.0078125
0.341159 -0.0078125 0
0.341379 -0.015625 0
0.341379 -0.015625 -0.0078125
0.341118 0 -0.0078125
0.341118 0 0
0.341178 -0.0078125 0
0.341178 -0.0078125 -0.0078125
0.341118 0 -0.0078125
0.341118 0 0
0.341178 0.0078125 0
0.341178 0.0078125 -0.0078125
0.341159 0.0078125 -0.0078125
0.341159 0.0078125 0
0.341379 0.015625 0
0.341379 0.015625 -0.0078125
0.341393 0.015625 -0.0078125
0.341393 0.015625 0
0.341783 0.0234375 0
0.341783 0.0234375 -0.0078125
0.341774 0.0234375 -0.0078125
0.341774 0.0234375 0
0.342324 0.03125 0
0.342324 0.03125 -0.0078125
0.342328 0.03125 -0.0078125
0.342328 0.03125 0
0.34305 0.0390625 0
0.34305 0.0390625 -0.0078125
0.343047 0.0390625 0
0.34375 0.0452167 0
0.34375 0.0452167 -0.0078125
0.343047 0.0390625 -0.0078125
0.343943 0.046875 0
0.34375 0.0451883 0
0.34375 0.0451883 -0.0078125
0.343943 0.046875 -0.0078125
0.345009 0.0546875 -0.0078125
0.345009 0.0546875 0
0.343938 0.046875 0
0.343938 0.046875 -0.0078125
0.346263 0.0625 -0.0078125
0.346263 0.0625 0
0.345006 0.0546875 0
0.345006 0.0546875 -0.0078125
0.347713 0.0703125 -0.0078125
0.347713 0.0703125 0
0.346262 0.0625 0
0.346262 0.0625 -0.0078125
0.347713 0.0703125 0
0.347713 0.0703125 -0.0078125
0.349362 0.078125 -0.0078125
0.349362 0.078125 0
0.34936 0.078125 -0.0078125
0.34936 0.078125 0
0.351213 0.0859375 0
0.351213 0.0859375 -0.0078125
0.351193 0.0859375 0
0.351562 0.0873305 0
0.351562 0.0873305 -0.0078125
0.351193 0.0859375 -0.0078125
0.353283 0.09375 0
0.351562 0.0872634 0
0.351562 0.0872634 -0.0078125
0.353283 0.09375 -0.0078125
0.355586 0.101562 -0.0078125
0.355586 0.101562 0
0.353277 0.09375 0
0.353277 0.09375 -0.0078125
0.355586 0.101562 -0.0078125
0.355586 0.101562 0
0.358136 0.109375 0
0.358136 0.109375 -0.0078125
0.358118 0.109375 0
0.359375 0.112877 0
0.359375 0.112877 -0.0078125
0.358118 0.109375 -0.0078125
0.360941 0.117188 0
0.359375 0.112825 0
0.359375 0.112825 -0.0078125
0.360941 0.117188 -0.0078125
0.364012 0.125 -0.0078125
0.364012 0.125 0
0.360929 0.117188 0
0.360929 0.117188 -0.0078125
0.364009 0.125 0
0.367188 0.132354 0
0.367188 0.132354 -0.0078125
0.364009 0.125 -0.0078125
0.367385 0.132812 0
0.367188 0.132356 0
0.367188 0.132356 -0.0078125
0.367385 0.132812 -0.0078125
0.341159 -0.0078125 0
0.341159 -0.0078125 0.0078125
0.341379 -0.015625 0.0078125
0.341379 -0.015625 0
0.341118 0 0
0.341118 0 0.0078125
0.341178 -0.0078125 0.0078125
0.341178 -0.0078125 0
0.341118 0 0
0.341118 0 0.0078125
0.341178 0.0078125 0.0078125
0.341178 0.0078125 0
0.341159 0.0078125 0
0.341159 0.0078125 0.0078125
0.341379 0.015625 0.0078125
0.341379 0.015625 0
0.341393 0.015625 0
0.341393 0.015625 0.0078125
0.341783 0.0234375 0.0078125
0.341783 0.0234375 0
0.341774 0.0234375 0
0.341774 0.0234375 0.0078125
0.342324 0.03125 0.0078125
0.342324 0.03125 0
0.342328 0.03125 0
0.342328 0.03125 0.0078125
0.34305 0.0390625 0.0078125
0.34305 0.0390625 0
0.343047 0.0390625 0.0078125
0.34375 0.0452167 0.0078125
0.34375 0.0452167 0
0.343047 0.0390625 0
0.343943 0.046875 0.0078125
0.34375 0.0451883 0.0078125
0.34375 0.0451883 0
0.343943 0.046875 0
0.345009 0.0546875 0
0.345009 0.0546875 0.0078125
0.343938 0.046875 0.0078125
0.343938 0.046875 0
0.346263 0.0625 0
0.346263 0.0625 0.0078125
0.345006 0.0546875 0.0078125
0.345006 0.0546875 0
0.347713 0.0703125 0
0.347713 0.0703125 0.0078125
0.346262 0.0625 0.0078125
0.346262 0.0625 0
0.347713 0.0703125 0.0078125
0.347713 0.0703125 0
0.349362 0.078125 0
0.349362 0.078125 0.0078125
0.34936 0.078125 0
0.34936 0.078125 0.0078125
0.351213 0.0859375 0.0078125
0.351213 0.0859375 0
0.351193 0.0859375 0.0078125
0.351562 0.0873305 0.0078125
0.351562 0.0873305 0
0.351193 0.0859375 0
0.353283 0.09375 0.0078125
0.351562 0.0872634 0.0078125
0.351562 0.0872634 0
0.353283 0.09375 0
0.355586 0.101562 0
0.355586 0.101562 0.0078125
0.353277 0.09375 0.0078125
0.353277 0.09375 0
0.355586 0.101562 0
0.355586 0.101562 0.0078125
0.358136 0.109375 0.0078125
0.358136 0.109375 0
0.358118 0.109375 0.0078125
0.359375 0.112877 0.0078125
0.359375 0.112877 0
0.358118 0.109375 0
0.360941 0.117188 0.0078125
0.359375 0.112825 0.0078125
0.359375 0.112825 0
0.360941 0.117188 0
0.364012 0.125 0
0.364012 0.125 0.0078125
0.360929 0.117188 0.0078125
0.360929 0.117188 0
0.364009 0.125 0.0078125
0.367188 0.132354 0.0078125
0.367188 0.132354 0
0.364009 0.125 0
0.367385 0.132812 0.0078125
0.367188 0.132356 0.0078125
0.367188 0.132356 0
0.367385 0.132812 0
0.341159 -0.0078125 0.0078125
0.341159 -0.0078125 0.015625
0.341379 -0.015625 0.015625
0.341379 -0.015625 0.0078125
0.341118 0 0.0078125
0.341118 0 0.015625
0.341178 -0.0078125 0.015625
0.341178 -0.0078125 0.0078125
0.341118 0 0.0078125
0.341118 0 0.015625
0.341178 0.0078125 0.015625
0.341178 0.0078125 0.0078125
0.341159 0.0078125 0.0078125
0.341159 0.0078125 0.015625
0.341379 0.015625 0.015625
0.341379 0.015625 0.0078125
0.341393 0.015625 0.0078125
0.341393 0.015625 0.015625
0.341783 0.0234375 0.015625
0.341783 0.0234375 0.0078125
0.341774 0.0234375 0.0078125
0.341774 0.0234375 0.015625
0.342324 0.03125 0.015625
0.342324 0.03125 0.0078125
0.342328 0.03125 0.0078125
0.342328 0.03125 0.015625
0.34305 0.0390625 0.015625
0.34305 0.0390625 0.0078125
0.343047 0.0390625 0.015625
0.34375 0.0452167 0.015625
0.34375 0.0452167 0.0078125
0.343047 0.0390625 0.0078125
0.343943 0.046875 0.015625
0.34375 0.0451883 0.015625
0.34375 0.0451883 0.0078125
0.343943 0.046875 0.0078125
0.345009 0.0546875 0.0078125
0.345009 0.0546875 0.015625
0.343938 0.046875 0.015625
0.343938 0.046875 0.0078125
0.346263 0.0625 0.0078125
0.346263 0.0625 0.015625
0.345006 0.0546875 0.015625
0.345006 0.0546875 0.0078125
0.347713 0.0703125 0.0078125
0.347713 0.0703125 0.015625
0.346262 0.0625 0.015625
0.346262 0.0625 0.0078125
0.347713 0.0703125 0.015625
0.347713 0.0703125 0.0078125
0.349362 0.078125 0.0078125
0.349362 0.078125 0.015625
0.34936 0.078125 0.0078125
0.34936 0.078125 0.015625
0.351213 0.0859375 0.015625
0.351213 0.0859375 0.0078125
0.351193 0.0859375 0.015625
0.351562 0.0873305 0.015625
0.351562 0.0873305 0.0078125
0.351193 0.0859375 0.0078125
0.353283 0.09375 0.015625
0.351562 0.0872634 0.015625
0.351562 0.0872634 0.0078125
0.353283 0.09375 0.0078125
0.355586 0.101562 0.0078125
0.355586 0.101562 0.015625
0.353277 0.09375 0.015625
0.353277 0.09375 0.0078125
0.355586 0.101562 0.0078125
0.355586 0.101562 0.015625
0.358136 0.109375 0.015625
0.358136 0.109375 0.0078125
0.358118 0.109375 0.015625
0.359375 0.112877 0.015625
0.359375 0.112877 0.0078125
0.358118 0.109375 0.0078125
0.360941 0.117188 0.015625
0.359375 0.112825 0.015625
0.359375 0.112825 0.0078125
0.360941 0.117188 0.0078125
0.364012 0.125 0.0078125
0.364012 0.125 0.015625
0.360929 0.117188 0.015625
0.360929 0.117188 0.0078125
0.364009 0.125 0.015625
0.367188 0.132354 0.015625
0.367188 0.132354 0.0078125
0.364009 0.125 0.0078125
0.367385 0.132812 0.015625
0.367188 0.132356 0.015625
0.367188 0.132356 0.0078125
0.367385 0.132812 0.0078125
0.341159 -0.0078125 0.015625
0.341159 -0.0078125 0.0234375
0.341379 -0.015625 0.0234375
0.341379 -0.015625 0.015625
0.341118 0 0.015625
0.341118 0 0.0234375
0.341178 -0.0078125 0.0234375
0.341178 -0.0078125 0.015625
0.341118 0 0.015625
0.341118 0 0.0234375
0.341178 0.0078125 0.0234375
0.341178 0.0078125 0.015625
0.341159 0.0078125 0.015625
0.341159 0.0078125 0.0234375
0.341379 0.015625 0.0234375
0.341379 0.015625 0.015625
0.341393 0.015625 0.015625
0.341393 0.015625 0.0234375
0.341783 0.0234375 0.0234375
0.341783 0.0234375 0.015625
0.341774 0.0234375 0.015625
0.341774 0.0234375 0.0234375
0.342324 0.03125 0.0234375
0.342324 0.03125 0.015625
0.342328 0.03125 0.015625
0.342328 0.03125 0.0234375
0.34305 0.0390625 0.0234375
0.34305 0.0390625 0.015625
0.343047 0.0390625 0.0234375
0.34375 0.0452167 0.0234375
0.34375 0.0452167 0.015625
0.343047 0.0390625 0.015625
0.343943 0.046875 0.0234375
0.34375 0.0451883 0.0234375
0.34375 0.0451883 0.015625
0.343943 0.046875 0.015625
0.345009 0.0546875 0.015625
0.345009 0.0546875 0.0234375
0.343938 0.046875 0.0234375
0.343938 0.046875 0.015625
0.346263 0.0625 0.015625
0.346263 0.0625 0.0234375
0.345006 0.0546875 0.0234375
0.345006 0.0546875 0.015625
0.347713 0.0703125 0.015625
0.347713 0.0703125 0.0234375
0.346262 0.0625 0.0234375
0.346262 0.0625 0.015625
0.347713 0.0703125 0.0234375
0.347713 0.0703125 0.015625
0.349362 0.078125 0.015625
0.349362 0.078125 0.0234375
0.34936 0.078125 0.015625
0.34936 0.078125 0.0234375
0.351213 0.0859375 0.0234375
0.351213 0.0859375 0.015625
0.351193 0.0859375 0.0234375
0.351562 0.0873305 0.0234375
0.351562 0.0873305 0.015625
0.351193 0.0859375 0.015625
0.353283 0.09375 0.0234375
0.351562 0.0872634 0.0234375
0.351562 0.0872634 0.015625
0.353283 0.09375 0.015625
0.355586 0.101562 0.015625
0.355586 0.101562 0.0234375
0.353277 0.09375 0.0234375
0.353277 0.09375 0.015625
0.355586 0.101562 0.015625
0.355586 0.101562 0.0234375
0.358136 0.109375 0.0234375
0.358136 0.109375 0.015625
0.358118 0.109375 0.0234375
0.359375 0.112877 0.0234375
0.359375 0.112877 0.015625
0.358118 0.109375 0.015625
0.360941 0.117188 0.0234375
0.359375 0.112825 0.0234375
0.359375 0.112825 0.015625
0.360941 0.117188 0.015625
0.364012 0.125 0.015625
0.364012 0.125 0.0234375
0.360929 0.117188 0.0234375
0.360929 0.117188 0.015625
0.364009 0.125 0.0234375
0.367188 0.132354 0.0234375
0.367188 0.132354 0.015625
0.364009 0.125 0.015625
0.367385 0.132812 0.0234375
0.367188 0.132356 0.0234375
0.367188 0.132356 0.015625
0.367385 0.132812 0.015625
0.364012 0.125 -0.0078125
0.364012 0.125 0
0.360929 0.117188 0
0.360929 0.117188 -0.0078125
0.364009 0.125 0
0.367188 0.132354 0
0.367188 0.132354 -0.0078125
0.364009 0.125 -0.0078125
0.367385 0.132812 0
0.367188 0.132356 0
0.367188 0.132356 -0.0078125
0.367385 0.132812 -0.0078125
0.371071 0.140625 -0.0078125
0.371071 0.140625 0
0.367377 0.132812 0
0.367377 0.132812 -0.0078125
0.371065 0.140625 0
0.375 0.148241 0
0.375 0.148241 -0.0078125
[...]
CELL_DATA 724
SCALARS c float
LOOKUP_TABLE default
-1.00196e+06
-1.00096e+06
-999957
-998957
-997957
-996957
-995957
-994957
-994956
-993956
-992956
-991956
-990956
-989956
-988956
-988955
-987955
-986955
-985955
-985954
-984954
-983954
-983953
-1957
-957
43
1043
2043
3043
4043
5043
5044
6044
7044
8044
9044
10044
11044
11045
12045
13045
14045
14046
15046
16046
16047
998043
999043
1.00004e+06
1.00104e+06
1.00204e+06
1.00304e+06
1.00404e+06
1.00504e+06
1.00504e+06
1.00604e+06
1.00704e+06
1.00804e+06
1.00904e+06
1.01004e+06
1.01104e+06
1.01104e+06
1.01204e+06
1.01304e+06
1.01404e+06
1.01405e+06
1.01505e+06
1.01605e+06
1.01605e+06
1.99804e+06
1.99904e+06
2.00004e+06
2.00104e+06
2.00204e+06
2.00304e+06
2.00404e+06
2.00504e+06
2.00504e+06
2.00604e+06
2.00704e+06
2.00804e+06
2.00904e+06
2.01004e+06
2.01104e+06
2.01104e+06
2.01204e+06
2.01304e+06
2.01404e+06
2.01405e+06
2.01505e+06
2.01605e+06
2.01605e+06
-984954
-983954
-983953
-982953
-981953
-981952
-980952
-979952
15046
16046
16047
17047
18047
18048
19048
20048
1.01505e+06
1.01605e+06
1.01605e+06
1.01705e+06
1.01805e+06
1.01805e+06
1.01905e+06
1.02005e+06
2.01505e+06
2.01605e+06
2.01605e+06
2.01705e+06
2.01805e+06
2.01805e+06
2.01905e+06
2.02005e+06
-983953
16047
1.01605e+06
2.01605e+06
-983953
-982953
-981953
-981952
-980952
-979952
-979951
-978951
-977951
-977950
-976950
-976949
-975949
-975948
-974948
-974947
-973947
-973946
-972946
-972945
-971945
-971944
-971943
-970943
-970942
-969942
-969941
-969940
-968940
-968939
-968938
-968937
-967937
-967936
16047
17047
18047
18048
19048
20048
20049
21049
22049
22050
23050
23051
24051
24052
25052
25053
26053
26054
27054
27055
28055
28056
28057
29057
29058
30058
30059
30060
31060
31061
31062
31063
32063
32064
1.01605e+06
1.01705e+06
1.01805e+06
1.01805e+06
1.01905e+06
1.02005e+06
1.02005e+06
1.02105e+06
1.02205e+06
1.02205e+06
1.02305e+06
1.02305e+06
1.02405e+06
1.02405e+06
1.02505e+06
1.02505e+06
1.02605e+06
1.02605e+06
1.02705e+06
1.02706e+06
1.02806e+06
1.02806e+06
1.02806e+06
1.02906e+06
1.02906e+06
1.03006e+06
1.03006e+06
1.03006e+06
1.03106e+06
1.03106e+06
1.03106e+06
1.03106e+06
1.03206e+06
1.03206e+06
2.01605e+06
2.01705e+06
2.01805e+06
2.01805e+06
2.01905e+06
2.02005e+06
2.02005e+06
2.02105e+06
2.02205e+06
2.02205e+06
2.02305e+06
2.02305e+06
2.02405e+06
2.02405e+06
2.02505e+06
2.02505e+06
2.02605e+06
2.02605e+06
2.02705e+06
2.02706e+06
2.02806e+06
2.02806e+06
2.02806e+06
2.02906e+06
2.02906e+06
2.03006e+06
2.03006e+06
2.03006e+06
2.03106e+06
2.03106e+06
2.03106e+06
2.03106e+06
2.03206e+06
2.03206e+06
-968940
-968939
-968938
-968937
-967937
-967936
31060
31061
31062
31063
32063
32064
1.03106e+06
1.03106e+06
1.03106e+06
1.03106e+06
1.03206e+06
1.03206e+06
2.03106e+06
2.03106e+06
2.03106e+06
2.03106e+06
2.03206e+06
2.03206e+06
-968937
-968920
-967937
-967936
-967935
-967934
-967933
-967932
-967925
-967924
-967923
-967922
-967921
-967920
31063
31080
32063
32064
32065
32066
32067
32068
32075
32076
32077
32078
32079
32080
1.03106e+06
1.03108e+06
1.03206e+06
1.03206e+06
1.03206e+06
1.03207e+06
1.03207e+06
1.03207e+06
1.03208e+06
1.03208e+06
1.03208e+06
1.03208e+06
1.03208e+06
1.03208e+06
2.03106e+06
2.03108e+06
2.03206e+06
2.03206e+06
2.03206e+06
2.03207e+06
2.03207e+06
2.03207e+06
2.03208e+06
2.03208e+06
2.03208e+06
2.03208e+06
2.03208e+06
2.03208e+06
-968937
-968920
-967937
-967936
-967935
-967934
-967933
-967932
-967925
-967924
-967923
-967922
-967921
-967920
-966932
-966931
-966930
-966929
-966928
-966927
-966926
-966925
31063
31080
32063
32064
32065
32066
32067
32068
32075
32076
32077
32078
32079
32080
33068
33069
33070
33071
33072
33073
33074
33075
1.03106e+06
1.03108e+06
1.03206e+06
1.03206e+06
1.03206e+06
1.03207e+06
1.03207e+06
1.03207e+06
1.03208e+06
1.03208e+06
1.03208e+06
1.03208e+06
1.03208e+06
1.03208e+06
1.03307e+06
1.03307e+06
1.03307e+06
1.03307e+06
1.03307e+06
1.03307e+06
1.03307e+06
1.03308e+06
2.03106e+06
2.03108e+06
2.03206e+06
2.03206e+06
2.03206e+06
2.03207e+06
2.03207e+06
2.03207e+06
2.03208e+06
2.03208e+06
2.03208e+06
2.03208e+06
2.03208e+06
2.03208e+06
2.03307e+06
2.03307e+06
2.03307e+06
2.03307e+06
2.03307e+06
2.03307e+06
2.03307e+06
2.03308e+06
-978904
-977905
-977904
-976906
-976905
-975907
-975906
-974908
-974907
-973910
-973909
-973908
-972911
-972910
-971913
-971912
-971911
-970915
-970914
-970913
-969917
-969916
-969915
-968920
-968919
-968918
-968917
-967921
-967920
21096
22095
22096
23094
23095
24093
24094
25092
25093
26090
26091
26092
27089
27090
28087
28088
28089
29085
29086
29087
30083
30084
30085
31080
31081
31082
31083
32079
32080
1.0211e+06
1.0221e+06
1.0221e+06
1.02309e+06
1.0231e+06
1.02409e+06
1.02409e+06
1.02509e+06
1.02509e+06
1.02609e+06
1.02609e+06
1.02609e+06
1.02709e+06
1.02709e+06
1.02809e+06
1.02809e+06
1.02809e+06
1.02908e+06
1.02909e+06
1.02909e+06
1.03008e+06
1.03008e+06
1.03008e+06
1.03108e+06
1.03108e+06
1.03108e+06
1.03108e+06
1.03208e+06
1.03208e+06
2.0211e+06
2.0221e+06
2.0221e+06
2.02309e+06
2.0231e+06
2.02409e+06
2.02409e+06
2.02509e+06
2.02509e+06
2.02609e+06
2.02609e+06
2.02609e+06
2.02709e+06
2.02709e+06
2.02809e+06
2.02809e+06
2.02809e+06
2.02908e+06
2.02909e+06
2.02909e+06
2.03008e+06
2.03008e+06
2.03008e+06
2.03108e+06
2.03108e+06
2.03108e+06
2.03108e+06
2.03208e+06
2.03208e+06
-968920
-968919
-968918
-968917
-967921
-967920
31080
31081
31082
31083
32079
32080
1.03108e+06
1.03108e+06
1.03108e+06
1.03108e+06
1.03208e+06
1.03208e+06
2.03108e+06
2.03108e+06
2.03108e+06
2.03108e+06
2.03208e+06
2.03208e+06
-1.0019e+06
-1.0009e+06
-999896
-998896
-997896
-996896
-995896
-994896
-993896
-992897
-992896
-991897
-990897
-989898
-989897
-988898
-987898
-986899
-986898
-985899
-984900
-984899
-983900
-1896
-896
104
1104
2104
3104
4104
5104
6104
7103
7104
8103
9103
10102
10103
11102
12102
13101
13102
14101
15100
15101
16100
998104
999104
1.0001e+06
1.0011e+06
1.0021e+06
1.0031e+06
1.0041e+06
1.0051e+06
1.0061e+06
1.0071e+06
1.0071e+06
1.0081e+06
1.0091e+06
1.0101e+06
1.0101e+06
1.0111e+06
1.0121e+06
1.0131e+06
1.0131e+06
1.0141e+06
1.0151e+06
1.0151e+06
1.0161e+06
1.9981e+06
1.9991e+06
2.0001e+06
2.0011e+06
2.0021e+06
2.0031e+06
2.0041e+06
2.0051e+06
2.0061e+06
2.0071e+06
2.0071e+06
2.0081e+06
2.0091e+06
2.0101e+06
2.0101e+06
2.0111e+06
2.0121e+06
2.0131e+06
2.0131e+06
2.0141e+06
2.0151e+06
2.0151e+06
2.0161e+06
-984900
-984899
-983900
-982901
-982900
-981902
-981901
-980902
-979903
-979902
-978904
-978903
-977905
-977904
-976905
15100
15101
16100
17099
17100
18098
18099
19098
20097
20098
21096
21097
22095
22096
23095
1.0151e+06
1.0151e+06
1.0161e+06
1.0171e+06
1.0171e+06
1.0181e+06
1.0181e+06
1.0191e+06
1.0201e+06
1.0201e+06
1.0211e+06
1.0211e+06
1.0221e+06
1.0221e+06
1.0231e+06
2.0151e+06
2.0151e+06
2.0161e+06
2.0171e+06
2.0171e+06
2.0181e+06
2.0181e+06
2.0191e+06
2.0201e+06
2.0201e+06
2.0211e+06
2.0211e+06
2.0221e+06
2.0221e+06
2.0231e+06
