<?xml version="1.0"?>
<VTKFile type="StructuredGrid" version="0.1" byte_order="LittleEndian">
  <StructuredGrid WholeExtent="0 8 0 8 0 8">
    <Piece Extent="0 8 0 8 0 8">
      <PointData>
      </PointData>
      <CellData>
        <DataArray Name="vx" NumberOfComponents="1" type="Float32" format="ascii">
0.8686278722669210639 0.86862787226697790732 0.86862787226692128595 0.86862787226697735221 0.86862787226692361742 0.86862787226697724119 0.86862787226692039777 0.86862787226697957266 0.60873244612546639765 0.6087324461250116503 0.60873244612546861809 0.60873244612501731243 0.60873244612545696075 0.60873244612502785955 0.60873244612545496235 0.60873244612502019901 0.35853398359285537644 0.35853398359542648643 0.3585339835928123553 0.3585339835954362564 0.35853398359284183172 0.35853398359538413143 0.35853398359288563002 0.35853398359537497209 0.1181504230704125552 0.11815042306320605592 0.1181504230705425762 0.11815042306311021592 0.1181504230705481967 0.11815042306319856191 0.11815042307041768999 0.11815042306329436028 -0.11815042307057864457 -0.11815042306306657027 -0.11815042307069054117 -0.1181504230629241009 -0.11815042307078062189 -0.11815042306293935259 -0.11815042307066851712 -0.11815042306308187747 -0.35853398359268118245 -0.35853398359556543085 -0.35853398359266819284 -0.3585339835956219412 -0.35853398359260046924 -0.35853398359566140963 -0.3585339835926137364 -0.35853398359560462172 -0.60873244612552435129 -0.60873244612496668626 -0.60873244612551336008 -0.60873244612496446582 -0.60873244612552768196 -0.60873244612494437078 -0.60873244612553845112 -0.60873244612494692429 -0.8686278722669056318 -0.86862787226698934262 -0.86862787226690962861 -0.86862787226698567888 -0.86862787226691196008 -0.86862787226699067489 -0.86862787226690751918 -0.86862787226699467169 0.86862787226699011978 0.86862787226690874043 0.86862787226698889853 0.86862787226691062781 0.86862787226698656706 0.86862787226691040576 0.86862787226698967569 0.86862787226690640896 0.60873244612493360162 0.60873244612555221789 0.60873244612493093708 0.60873244612554411326 0.60873244612494625816 0.60873244612553079058 0.60873244612494858963 0.60873244612554089361 0.35853398359582072663 0.35853398359239857518 0.35853398359587473898 0.35853398359238702886 0.35853398359583660282 0.35853398359245303162 0.35853398359578197985 0.35853398359246363425 0.11815042306215853274 0.11815042307160383839 0.11815042306199743938 0.11815042307172071712 0.11815042306199298461 0.11815042307160958379 0.11815042306215454981 0.1181504230714927467 -0.11815042306195089328 -0.11815042307177903158 -0.11815042306181162968 -0.11815042307195344762 -0.11815042306170395192 -0.11815042307193100724 -0.11815042306184350696 -0.11815042307175668834 -0.3585339835960421051 -0.35853398359222055092 -0.35853398359606020174 -0.3585339835921497742 -0.35853398359614285784 -0.35853398359210342239 -0.35853398359612448365 -0.35853398359217436564 -0.60873244612485921667 -0.60873244612561094868 -0.60873244612487209526 -0.60873244612561416833 -0.60873244612485344351 -0.60873244612563870426 -0.60873244612484056493 -0.60873244612563481848 -0.86862787226700999277 -0.86862787226689353037 -0.86862787226700521881 -0.86862787226689897047 -0.86862787226700333143 -0.86862787226689197606 -0.86862787226700910459 -0.86862787226688764619 0.86862787226689774922 0.86862787226700088894 0.86862787226689885944 0.86862787226699855747 0.86862787226690207909 0.86862787226699833543 0.86862787226689830433 0.86862787226700344245 0.60873244612562071865 0.608732446124855886 0.60873244612562393829 0.60873244612486510086 0.60873244612560650779 0.60873244612488031091 0.6087324461256040653 0.60873244612486843153 0.35853398359205151946 0.35853398359624139013 0.35853398359199251111 0.35853398359625210379 0.35853398359203636492 0.35853398359617877356 0.35853398359209587287 0.35853398359616867053 0.11815042307253367793 0.11815042306105989767 0.11815042307271149402 0.11815042306093463675 0.11815042307271120259 0.1181504230610608136 0.11815042307253301179 0.11815042306118619941 -0.11815042307278217359 -0.11815042306084536095 -0.11815042307293943669 -0.11815042306065440259 -0.11815042307305297087 -0.11815042306068500311 -0.11815042307289574941 -0.11815042306087616963 -0.35853398359178351162 -0.35853398359646315718 -0.35853398359176030796 -0.35853398359654298222 -0.35853398359166999132 -0.35853398359659133243 -0.35853398359169297294 -0.35853398359651145189 -0.60873244612571220102 -0.60873244612478261129 -0.60873244612569821221 -0.60873244612477794835 -0.60873244612571897338 -0.60873244612475108095 -0.60873244612573362833 -0.60873244612475552184 -0.86862787226687232511 -0.86862787226701965171 -0.86862787226687865338 -0.86862787226701332344 -0.86862787226688087383 -0.86862787226702131704 -0.86862787226687310227 -0.86862787226702686816 0.8686278722670036645 0.86862787226689486264 0.86862787226700211018 0.868627872266896639 0.86862787226700011178 0.86862787226689741615 0.86862787226700377552 0.86862787226689242015 0.60873244612484034288 0.60873244612564592071 0.60873244612483812244 0.60873244612563648381 0.60873244612485422067 0.60873244612562260603 0.60873244612485655214 0.60873244612563359723 0.35853398359631449832 0.35853398359190308264 0.35853398359636939885 0.35853398359189520006 0.35853398359632610015 0.35853398359196503309 0.35853398359627075553 0.35853398359197263812 0.11815042306084766466 0.11815042307292164536 0.1181504230606772593 0.11815042307303749713 0.11815042306068322675 0.11815042307291295787 0.11815042306085365986 0.11815042307279685629 -0.11815042306058308463 -0.11815042307315518078 -0.11815042306042856934 -0.11815042307333771532 -0.11815042306032425001 -0.11815042307330256288 -0.11815042306047875142 -0.11815042307311983405 -0.35853398359660093586 -0.35853398359165911113 -0.35853398359662613792 -0.35853398359158117348 -0.35853398359671234674 -0.35853398359153659802 -0.35853398359668758877 -0.35853398359161497977 -0.60873244612474253223 -0.60873244612572674495 -0.60873244612475518878 -0.60873244612573118584 -0.60873244612473531578 -0.60873244612575772017 -0.60873244612472154902 -0.6087324461257523911 -0.86862787226703130905 -0.86862787226687432351 -0.86862787226702542487 -0.86862787226688065179 -0.8686278722670220942 -0.86862787226687343534 -0.86862787226702953269 -0.86862787226686799524 0.86862787226690207909 0.86862787226699755827 0.8686278722669036334 0.86862787226699555987 0.86862787226690474363 0.86862787226699478271 0.86862787226690152398 0.86862787226699911258 0.60873244612559562761 0.60873244612488208727 0.60873244612559729294 0.60873244612488985883 0.60873244612558474742 0.60873244612490085004 0.60873244612558297106 0.60873244612489141314 0.35853398359216931413 0.35853398359611499124 0.35853398359212523827 0.3585339835961197652 0.35853398359216215319 0.35853398359606203361 0.35853398359220672864 0.35853398359605731516 0.11815042307223817819 0.11815042306137105155 0.11815042307238075858 0.11815042306127719607 0.11815042307237169639 0.1181504230613842632 0.11815042307222894946 0.11815042306147853501 -0.11815042307248363462 -0.11815042306115007553 -0.11815042307261651444 -0.11815042306099664271 -0.1181504230727015714 -0.11815042306102993552 -0.11815042307256863607 -0.11815042306118371529 -0.35853398359190419287 -0.3585339835963457511 -0.35853398359188182187 -0.35853398359641241999 -0.35853398359180915778 -0.35853398359644911286 -0.35853398359183163979 -0.35853398359638199988 -0.60873244612568644385 -0.60873244612480592597 -0.60873244612567578571 -0.60873244612480215121 -0.60873244612569177292 -0.60873244612477983573 -0.60873244612570365231 -0.60873244612478427662 -0.86862787226687632192 -0.86862787226701587695 -0.86862787226688165099 -0.86862787226701088095 -0.8686278722668862029 -0.86862787226701632104 -0.86862787226687931952 -0.86862787226702176113 0.8686278722669837915 0.8686278722669140695 0.86862787226698290333 0.8686278722669140695 0.86862787226698323639 0.86862787226691495768 0.86862787226698479071 0.86862787226691229314 0.6087324461249693508 0.60873244612551513644 0.60873244612496824058 0.6087324461255094743 0.60873244612497723338 0.60873244612550159172 0.60873244612497812156 0.60873244612550858612 0.35853398359565435971 0.35853398359257682149 0.35853398359568733333 0.35853398359257382388 0.35853398359565918918 0.35853398359261778872 0.35853398359562560493 0.35853398359262061978 0.11815042306257533822 0.11815042307116482845 0.11815042306246431592 0.11815042307123696519 0.1181504230624723234 0.11815042307115292131 0.11815042306258367877 0.11815042307108038211 -0.11815042306237184822 -0.11815042307134931976 -0.11815042306226693214 -0.11815042307147048672 -0.11815042306219986079 -0.11815042307144410505 -0.11815042306230490177 -0.11815042307132271604 -0.3585339835958718524 -0.35853398359238602966 -0.35853398359588889432 -0.35853398359233379367 -0.35853398359594623734 -0.35853398359230420622 -0.35853398359592897338 -0.35853398359235683079 -0.60873244612489574301 -0.60873244612557753097 -0.60873244612490406968 -0.60873244612558019551 -0.6087324461248921903 -0.60873244612559795907 -0.60873244612488242034 -0.60873244612559496147 -0.8686278722670046637 -0.86862787226689874842 -0.86862787226700111098 -0.86862787226690296727 -0.86862787226699589294 -0.86862787226689897047 -0.86862787226700144405 -0.86862787226689452957 0.86862787226692572684 0.86862787226697413256 0.86862787226692605991 0.86862787226697468768 0.86862787226692572684 0.86862787226697368848 0.86862787226692417253 0.86862787226697546483 0.60873244612544108456 0.60873244612503774054 0.60873244612544186172 0.60873244612504195938 0.60873244612543497833 0.6087324461250485097 0.60873244612543420118 0.60873244612504295858 0.35853398359297278253 0.35853398359530047612 0.35853398359294486042 0.35853398359530391781 0.35853398359296739795 0.35853398359526755801 0.35853398359299609721 0.35853398359526428285 0.11815042307011848488 0.11815042306351580814 0.11815042307021292323 0.11815042306345190093 0.11815042307020959256 0.11815042306352113721 0.11815042307011468237 0.1181504230635853081 -0.11815042307028165991 -0.11815042306336961953 -0.11815042307036917324 -0.11815042306326488386 -0.11815042307043054082 -0.11815042306328311927 -0.11815042307034263891 -0.11815042306338802147 -0.35853398359280114205 -0.35853398359544857987 -0.35853398359278887408 -0.35853398359549210062 -0.35853398359273902507 -0.35853398359551974517 -0.35853398359275145957 -0.35853398359547600238 -0.60873244612549837207 -0.60873244612499022299 -0.60873244612549037846 -0.60873244612498844663 -0.60873244612550059252 -0.6087324461249733476 -0.60873244612550903021 -0.60873244612497501294 -0.86862787226690985065 -0.86862787226698545684 -0.86862787226691273723 -0.86862787226698245924 -0.86862787226691651199 -0.86862787226698612297 -0.86862787226691218212 -0.86862787226698945364 0.8686278722669708019 0.86862787226692705911 0.86862787226697057985 0.86862787226692705911 0.86862787226696969167 0.8686278722669275032 0.86862787226697169007 0.86862787226692583786 0.60873244612505861273 0.60873244612542543042 0.60873244612505728046 0.60873244612542076748 0.60873244612506549611 0.6087324461254138841 0.60873244612506649531 0.60873244612541932419 0.3585339835951779075 0.35853398359305499454 0.35853398359521015948 0.35853398359304844423 0.35853398359518701133 0.35853398359308830123 0.35853398359515398219 0.35853398359309429644 0.11815042306384621051 0.11815042306988744747 0.11815042306374365366 0.11815042306996123567 0.11815042306374126668 0.11815042306989016752 0.11815042306384422599 0.11815042306981630993 -0.11815042306369824554 -0.11815042307001492883 -0.11815042306360770685 -0.11815042307012880995 -0.11815042306353674972 -0.11815042307011504319 -0.11815042306362756597 -0.11815042307000114818 -0.35853398359533195094 -0.35853398359292837361 -0.35853398359534255357 -0.35853398359288279895 -0.35853398359539662144 -0.35853398359285121311 -0.35853398359538579676 -0.35853398359289689878 -0.60873244612500798656 -0.60873244612546628662 -0.60873244612501675732 -0.60873244612546795196 -0.60873244612500543305 -0.60873244612548405019 -0.60873244612499699535 -0.60873244612548216281 -0.86862787226698445764 -0.8686278722669170671 -0.86862787226698112697 -0.8686278722669200647 -0.86862787226697835141 -0.86862787226691573483 -0.86862787226698245924 -0.8686278722669130703 
        </DataArray>
      </CellData>
      <Points>
        <DataArray Name="m" NumberOfComponents="3" type="Float32" format="ascii">
0 0 0 0.125 0 0 0.25 0 0 0.375 0 0 0.5 0 0 0.625 0 0 0.75 0 0 0.875 0 0 1 0 0 0 0.125 0 0.125 0.125 0 0.25 0.125 0 0.375 0.125 0 0.5 0.125 0 0.625 0.125 0 0.75 0.125 0 0.875 0.125 0 1 0.125 0 0 0.25 0 0.125 0.25 0 0.25 0.25 0 0.375 0.25 0 0.5 0.25 0 0.625 0.25 0 0.75 0.25 0 0.875 0.25 0 1 0.25 0 0 0.375 0 0.125 0.375 0 0.25 0.375 0 0.375 0.375 0 0.5 0.375 0 0.625 0.375 0 0.75 0.375 0 0.875 0.375 0 1 0.375 0 0 0.5 0 0.125 0.5 0 0.25 0.5 0 0.375 0.5 0 0.5 0.5 0 0.625 0.5 0 0.75 0.5 0 0.875 0.5 0 1 0.5 0 0 0.625 0 0.125 0.625 0 0.25 0.625 0 0.375 0.625 0 0.5 0.625 0 0.625 0.625 0 0.75 0.625 0 0.875 0.625 0 1 0.625 0 0 0.75 0 0.125 0.75 0 0.25 0.75 0 0.375 0.75 0 0.5 0.75 0 0.625 0.75 0 0.75 0.75 0 0.875 0.75 0 1 0.75 0 0 0.875 0 0.125 0.875 0 0.25 0.875 0 0.375 0.875 0 0.5 0.875 0 0.625 0.875 0 0.75 0.875 0 0.875 0.875 0 1 0.875 0 0 1 0 0.125 1 0 0.25 1 0 0.375 1 0 0.5 1 0 0.625 1 0 0.75 1 0 0.875 1 0 1 1 0 0 0 0.125 0.125 0 0.125 0.25 0 0.125 0.375 0 0.125 0.5 0 0.125 0.625 0 0.125 0.75 0 0.125 0.875 0 0.125 1 0 0.125 0 0.125 0.125 0.125 0.125 0.125 0.25 0.125 0.125 0.375 0.125 0.125 0.5 0.125 0.125 0.625 0.125 0.125 0.75 0.125 0.125 0.875 0.125 0.125 1 0.125 0.125 0 0.25 0.125 0.125 0.25 0.125 0.25 0.25 0.125 0.375 0.25 0.125 0.5 0.25 0.125 0.625 0.25 0.125 0.75 0.25 0.125 0.875 0.25 0.125 1 0.25 0.125 0 0.375 0.125 0.125 0.375 0.125 0.25 0.375 0.125 0.375 0.375 0.125 0.5 0.375 0.125 0.625 0.375 0.125 0.75 0.375 0.125 0.875 0.375 0.125 1 0.375 0.125 0 0.5 0.125 0.125 0.5 0.125 0.25 0.5 0.125 0.375 0.5 0.125 0.5 0.5 0.125 0.625 0.5 0.125 0.75 0.5 0.125 0.875 0.5 0.125 1 0.5 0.125 0 0.625 0.125 0.125 0.625 0.125 0.25 0.625 0.125 0.375 0.625 0.125 0.5 0.625 0.125 0.625 0.625 0.125 0.75 0.625 0.125 0.875 0.625 0.125 1 0.625 0.125 0 0.75 0.125 0.125 0.75 0.125 0.25 0.75 0.125 0.375 0.75 0.125 0.5 0.75 0.125 0.625 0.75 0.125 0.75 0.75 0.125 0.875 0.75 0.125 1 0.75 0.125 0 0.875 0.125 0.125 0.875 0.125 0.25 0.875 0.125 0.375 0.875 0.125 0.5 0.875 0.125 0.625 0.875 0.125 0.75 0.875 0.125 0.875 0.875 0.125 1 0.875 0.125 0 1 0.125 0.125 1 0.125 0.25 1 0.125 0.375 1 0.125 0.5 1 0.125 0.625 1 0.125 0.75 1 0.125 0.875 1 0.125 1 1 0.125 0 0 0.25 0.125 0 0.25 0.25 0 0.25 0.375 0 0.25 0.5 0 0.25 0.625 0 0.25 0.75 0 0.25 0.875 0 0.25 1 0 0.25 0 0.125 0.25 0.125 0.125 0.25 0.25 0.125 0.25 0.375 0.125 0.25 0.5 0.125 0.25 0.625 0.125 0.25 0.75 0.125 0.25 0.875 0.125 0.25 1 0.125 0.25 0 0.25 0.25 0.125 0.25 0.25 0.25 0.25 0.25 0.375 0.25 0.25 0.5 0.25 0.25 0.625 0.25 0.25 0.75 0.25 0.25 0.875 0.25 0.25 1 0.25 0.25 0 0.375 0.25 0.125 0.375 0.25 0.25 0.375 0.25 0.375 0.375 0.25 0.5 0.375 0.25 0.625 0.375 0.25 0.75 0.375 0.25 0.875 0.375 0.25 1 0.375 0.25 0 0.5 0.25 0.125 0.5 0.25 0.25 0.5 0.25 0.375 0.5 0.25 0.5 0.5 0.25 0.625 0.5 0.25 0.75 0.5 0.25 0.875 0.5 0.25 1 0.5 0.25 0 0.625 0.25 0.125 0.625 0.25 0.25 0.625 0.25 0.375 0.625 0.25 0.5 0.625 0.25 0.625 0.625 0.25 0.75 0.625 0.25 0.875 0.625 0.25 1 0.625 0.25 0 0.75 0.25 0.125 0.75 0.25 0.25 0.75 0.25 0.375 0.75 0.25 0.5 0.75 0.25 0.625 0.75 0.25 0.75 0.75 0.25 0.875 0.75 0.25 1 0.75 0.25 0 0.875 0.25 0.125 0.875 0.25 0.25 0.875 0.25 0.375 0.875 0.25 0.5 0.875 0.25 0.625 0.875 0.25 0.75 0.875 0.25 0.875 0.875 0.25 1 0.875 0.25 0 1 0.25 0.125 1 0.25 0.25 1 0.25 0.375 1 0.25 0.5 1 0.25 0.625 1 0.25 0.75 1 0.25 0.875 1 0.25 1 1 0.25 0 0 0.375 0.125 0 0.375 0.25 0 0.375 0.375 0 0.375 0.5 0 0.375 0.625 0 0.375 0.75 0 0.375 0.875 0 0.375 1 0 0.375 0 0.125 0.375 0.125 0.125 0.375 0.25 0.125 0.375 0.375 0.125 0.375 0.5 0.125 0.375 0.625 0.125 0.375 0.75 0.125 0.375 0.875 0.125 0.375 1 0.125 0.375 0 0.25 0.375 0.125 0.25 0.375 0.25 0.25 0.375 0.375 0.25 0.375 0.5 0.25 0.375 0.625 0.25 0.375 0.75 0.25 0.375 0.875 0.25 0.375 1 0.25 0.375 0 0.375 0.375 0.125 0.375 0.375 0.25 0.375 0.375 0.375 0.375 0.375 0.5 0.375 0.375 0.625 0.375 0.375 0.75 0.375 0.375 0.875 0.375 0.375 1 0.375 0.375 0 0.5 0.375 0.125 0.5 0.375 0.25 0.5 0.375 0.375 0.5 0.375 0.5 0.5 0.375 0.625 0.5 0.375 0.75 0.5 0.375 0.875 0.5 0.375 1 0.5 0.375 0 0.625 0.375 0.125 0.625 0.375 0.25 0.625 0.375 0.375 0.625 0.375 0.5 0.625 0.375 0.625 0.625 0.375 0.75 0.625 0.375 0.875 0.625 0.375 1 0.625 0.375 0 0.75 0.375 0.125 0.75 0.375 0.25 0.75 0.375 0.375 0.75 0.375 0.5 0.75 0.375 0.625 0.75 0.375 0.75 0.75 0.375 0.875 0.75 0.375 1 0.75 0.375 0 0.875 0.375 0.125 0.875 0.375 0.25 0.875 0.375 0.375 0.875 0.375 0.5 0.875 0.375 0.625 0.875 0.375 0.75 0.875 0.375 0.875 0.875 0.375 1 0.875 0.375 0 1 0.375 0.125 1 0.375 0.25 1 0.375 0.375 1 0.375 0.5 1 0.375 0.625 1 0.375 0.75 1 0.375 0.875 1 0.375 1 1 0.375 0 0 0.5 0.125 0 0.5 0.25 0 0.5 0.375 0 0.5 0.5 0 0.5 0.625 0 0.5 0.75 0 0.5 0.875 0 0.5 1 0 0.5 0 0.125 0.5 0.125 0.125 0.5 0.25 0.125 0.5 0.375 0.125 0.5 0.5 0.125 0.5 0.625 0.125 0.5 0.75 0.125 0.5 0.875 0.125 0.5 1 0.125 0.5 0 0.25 0.5 0.125 0.25 0.5 0.25 0.25 0.5 0.375 0.25 0.5 0.5 0.25 0.5 0.625 0.25 0.5 0.75 0.25 0.5 0.875 0.25 0.5 1 0.25 0.5 0 0.375 0.5 0.125 0.375 0.5 0.25 0.375 0.5 0.375 0.375 0.5 0.5 0.375 0.5 0.625 0.375 0.5 0.75 0.375 0.5 0.875 0.375 0.5 1 0.375 0.5 0 0.5 0.5 0.125 0.5 0.5 0.25 0.5 0.5 0.375 0.5 0.5 0.5 0.5 0.5 0.625 0.5 0.5 0.75 0.5 0.5 0.875 0.5 0.5 1 0.5 0.5 0 0.625 0.5 0.125 0.625 0.5 0.25 0.625 0.5 0.375 0.625 0.5 0.5 0.625 0.5 0.625 0.625 0.5 0.75 0.625 0.5 0.875 0.625 0.5 1 0.625 0.5 0 0.75 0.5 0.125 0.75 0.5 0.25 0.75 0.5 0.375 0.75 0.5 0.5 0.75 0.5 0.625 0.75 0.5 0.75 0.75 0.5 0.875 0.75 0.5 1 0.75 0.5 0 0.875 0.5 0.125 0.875 0.5 0.25 0.875 0.5 0.375 0.875 0.5 0.5 0.875 0.5 0.625 0.875 0.5 0.75 0.875 0.5 0.875 0.875 0.5 1 0.875 0.5 0 1 0.5 0.125 1 0.5 0.25 1 0.5 0.375 1 0.5 0.5 1 0.5 0.625 1 0.5 0.75 1 0.5 0.875 1 0.5 1 1 0.5 0 0 0.625 0.125 0 0.625 0.25 0 0.625 0.375 0 0.625 0.5 0 0.625 0.625 0 0.625 0.75 0 0.625 0.875 0 0.625 1 0 0.625 0 0.125 0.625 0.125 0.125 0.625 0.25 0.125 0.625 0.375 0.125 0.625 0.5 0.125 0.625 0.625 0.125 0.625 0.75 0.125 0.625 0.875 0.125 0.625 1 0.125 0.625 0 0.25 0.625 0.125 0.25 0.625 0.25 0.25 0.625 0.375 0.25 0.625 0.5 0.25 0.625 0.625 0.25 0.625 0.75 0.25 0.625 0.875 0.25 0.625 1 0.25 0.625 0 0.375 0.625 0.125 0.375 0.625 0.25 0.375 0.625 0.375 0.375 0.625 0.5 0.375 0.625 0.625 0.375 0.625 0.75 0.375 0.625 0.875 0.375 0.625 1 0.375 0.625 0 0.5 0.625 0.125 0.5 0.625 0.25 0.5 0.625 0.375 0.5 0.625 0.5 0.5 0.625 0.625 0.5 0.625 0.75 0.5 0.625 0.875 0.5 0.625 1 0.5 0.625 0 0.625 0.625 0.125 0.625 0.625 0.25 0.625 0.625 0.375 0.625 0.625 0.5 0.625 0.625 0.625 0.625 0.625 0.75 0.625 0.625 0.875 0.625 0.625 1 0.625 0.625 0 0.75 0.625 0.125 0.75 0.625 0.25 0.75 0.625 0.375 0.75 0.625 0.5 0.75 0.625 0.625 0.75 0.625 0.75 0.75 0.625 0.875 0.75 0.625 1 0.75 0.625 0 0.875 0.625 0.125 0.875 0.625 0.25 0.875 0.625 0.375 0.875 0.625 0.5 0.875 0.625 0.625 0.875 0.625 0.75 0.875 0.625 0.875 0.875 0.625 1 0.875 0.625 0 1 0.625 0.125 1 0.625 0.25 1 0.625 0.375 1 0.625 0.5 1 0.625 0.625 1 0.625 0.75 1 0.625 0.875 1 0.625 1 1 0.625 0 0 0.75 0.125 0 0.75 0.25 0 0.75 0.375 0 0.75 0.5 0 0.75 0.625 0 0.75 0.75 0 0.75 0.875 0 0.75 1 0 0.75 0 0.125 0.75 0.125 0.125 0.75 0.25 0.125 0.75 0.375 0.125 0.75 0.5 0.125 0.75 0.625 0.125 0.75 0.75 0.125 0.75 0.875 0.125 0.75 1 0.125 0.75 0 0.25 0.75 0.125 0.25 0.75 0.25 0.25 0.75 0.375 0.25 0.75 0.5 0.25 0.75 0.625 0.25 0.75 0.75 0.25 0.75 0.875 0.25 0.75 1 0.25 0.75 0 0.375 0.75 0.125 0.375 0.75 0.25 0.375 0.75 0.375 0.375 0.75 0.5 0.375 0.75 0.625 0.375 0.75 0.75 0.375 0.75 0.875 0.375 0.75 1 0.375 0.75 0 0.5 0.75 0.125 0.5 0.75 0.25 0.5 0.75 0.375 0.5 0.75 0.5 0.5 0.75 0.625 0.5 0.75 0.75 0.5 0.75 0.875 0.5 0.75 1 0.5 0.75 0 0.625 0.75 0.125 0.625 0.75 0.25 0.625 0.75 0.375 0.625 0.75 0.5 0.625 0.75 0.625 0.625 0.75 0.75 0.625 0.75 0.875 0.625 0.75 1 0.625 0.75 0 0.75 0.75 0.125 0.75 0.75 0.25 0.75 0.75 0.375 0.75 0.75 0.5 0.75 0.75 0.625 0.75 0.75 0.75 0.75 0.75 0.875 0.75 0.75 1 0.75 0.75 0 0.875 0.75 0.125 0.875 0.75 0.25 0.875 0.75 0.375 0.875 0.75 0.5 0.875 0.75 0.625 0.875 0.75 0.75 0.875 0.75 0.875 0.875 0.75 1 0.875 0.75 0 1 0.75 0.125 1 0.75 0.25 1 0.75 0.375 1 0.75 0.5 1 0.75 0.625 1 0.75 0.75 1 0.75 0.875 1 0.75 1 1 0.75 0 0 0.875 0.125 0 0.875 0.25 0 0.875 0.375 0 0.875 0.5 0 0.875 0.625 0 0.875 0.75 0 0.875 0.875 0 0.875 1 0 0.875 0 0.125 0.875 0.125 0.125 0.875 0.25 0.125 0.875 0.375 0.125 0.875 0.5 0.125 0.875 0.625 0.125 0.875 0.75 0.125 0.875 0.875 0.125 0.875 1 0.125 0.875 0 0.25 0.875 0.125 0.25 0.875 0.25 0.25 0.875 0.375 0.25 0.875 0.5 0.25 0.875 0.625 0.25 0.875 0.75 0.25 0.875 0.875 0.25 0.875 1 0.25 0.875 0 0.375 0.875 0.125 0.375 0.875 0.25 0.375 0.875 0.375 0.375 0.875 0.5 0.375 0.875 0.625 0.375 0.875 0.75 0.375 0.875 0.875 0.375 0.875 1 0.375 0.875 0 0.5 0.875 0.125 0.5 0.875 0.25 0.5 0.875 0.375 0.5 0.875 0.5 0.5 0.875 0.625 0.5 0.875 0.75 0.5 0.875 0.875 0.5 0.875 1 0.5 0.875 0 0.625 0.875 0.125 0.625 0.875 0.25 0.625 0.875 0.375 0.625 0.875 0.5 0.625 0.875 0.625 0.625 0.875 0.75 0.625 0.875 0.875 0.625 0.875 1 0.625 0.875 0 0.75 0.875 0.125 0.75 0.875 0.25 0.75 0.875 0.375 0.75 0.875 0.5 0.75 0.875 0.625 0.75 0.875 0.75 0.75 0.875 0.875 0.75 0.875 1 0.75 0.875 0 0.875 0.875 0.125 0.875 0.875 0.25 0.875 0.875 0.375 0.875 0.875 0.5 0.875 0.875 0.625 0.875 0.875 0.75 0.875 0.875 0.875 0.875 0.875 1 0.875 0.875 0 1 0.875 0.125 1 0.875 0.25 1 0.875 0.375 1 0.875 0.5 1 0.875 0.625 1 0.875 0.75 1 0.875 0.875 1 0.875 1 1 0.875 0 0 1 0.125 0 1 0.25 0 1 0.375 0 1 0.5 0 1 0.625 0 1 0.75 0 1 0.875 0 1 1 0 1 0 0.125 1 0.125 0.125 1 0.25 0.125 1 0.375 0.125 1 0.5 0.125 1 0.625 0.125 1 0.75 0.125 1 0.875 0.125 1 1 0.125 1 0 0.25 1 0.125 0.25 1 0.25 0.25 1 0.375 0.25 1 0.5 0.25 1 0.625 0.25 1 0.75 0.25 1 0.875 0.25 1 1 0.25 1 0 0.375 1 0.125 0.375 1 0.25 0.375 1 0.375 0.375 1 0.5 0.375 1 0.625 0.375 1 0.75 0.375 1 0.875 0.375 1 1 0.375 1 0 0.5 1 0.125 0.5 1 0.25 0.5 1 0.375 0.5 1 0.5 0.5 1 0.625 0.5 1 0.75 0.5 1 0.875 0.5 1 1 0.5 1 0 0.625 1 0.125 0.625 1 0.25 0.625 1 0.375 0.625 1 0.5 0.625 1 0.625 0.625 1 0.75 0.625 1 0.875 0.625 1 1 0.625 1 0 0.75 1 0.125 0.75 1 0.25 0.75 1 0.375 0.75 1 0.5 0.75 1 0.625 0.75 1 0.75 0.75 1 0.875 0.75 1 1 0.75 1 0 0.875 1 0.125 0.875 1 0.25 0.875 1 0.375 0.875 1 0.5 0.875 1 0.625 0.875 1 0.75 0.875 1 0.875 0.875 1 1 0.875 1 0 1 1 0.125 1 1 0.25 1 1 0.375 1 1 0.5 1 1 0.625 1 1 0.75 1 1 0.875 1 1 1 1 1         </DataArray>
      </Points>
    </Piece>
  </StructuredGrid>
</VTKFile>
