<?xml version="1.0"?>
<VTKFile type="StructuredGrid" version="0.1" byte_order="LittleEndian">
  <StructuredGrid WholeExtent="0 8 0 8 0 8">
    <Piece Extent="0 8 0 8 0 8">
      <PointData>
      </PointData>
      <CellData>
        <DataArray Name="vy" NumberOfComponents="1" type="Float32" format="ascii">
0.90189432653194434586 0.96084897458941287418 0.95241561625293791327 0.95140563760898810841 0.95140511299147045854 0.95241612032537614763 0.96084857910123633307 0.90189446194203648499 0.81584378092844755948 0.94447563385894450771 0.92734424414972504991 0.91954734900700108025 0.91954948936148628302 0.92734240328035322243 0.94447690456280186666 0.81584335591183620995 0.68096225859358860966 0.88029424393488797662 0.87608863650476154206 0.86408012881664053584 0.86407863996426381714 0.87608983872659718095 0.88029349253661715036 0.68096249923553875405 0.57134260315980189837 0.80888257887187031692 0.82309074873929632954 0.81127138790430453064 0.81127293718804516232 0.8230896159843257287 0.80888325153307083504 0.57134240995272056463 0.50396815041778519895 0.75978152468384141383 0.7917188671376822473 0.78363036231024318923 0.78362751617780634916 0.79172109529114909066 0.75978007266521208063 0.50396862029939826222 0.43876673408973160262 0.69484935524639468429 0.74009657944098672377 0.7372932553152394819 0.73729563168099021553 0.74009462802069470033 0.69485074549979342073 0.43876623796878178041 0.43927158219428175112 0.6994904025485713106 0.75133031442248110476 0.75225197680645183862 0.75225202253162670729 0.75133029283958940869 0.6994903307992365038 0.4392716611793715531 0.36444976069386220141 0.61087684557322430301 0.66698088898838747696 0.67227380105410494693 0.67227081850443726196 0.66698344820971855462 0.61087526895019150786 0.36445016794271700711 0.96084897413602665672 1.025736359329849412 1.0168425551250328542 1.0161276552006144325 1.0161291867074673245 1.0168410869869775048 1.0257375130872230518 0.9608485790733202192 0.94447563434740400279 1.1000418601907708815 1.080001488433616208 1.0723543060186817577 1.0723479866117964221 1.080006912430083954 1.1000381095104756479 0.94447690459346544944 0.88029424441371673105 1.143433364472663083 1.1356424864357643756 1.1224692919732133234 1.1224737876673582804 1.1356388867799223075 1.1434356510742571533 0.880293492565701996 0.80888257808642494151 1.1558472186283414995 1.1705679167285514275 1.1555241715058925944 1.1555192416748367723 1.1705715733277917145 1.1558450120221692714 0.80888325148505590967 0.7597815243565144705 1.1691064489135964966 1.2106351874891805309 1.1977015395116012986 1.1977100864367398181 1.210628471522666727 1.169110926977452225 0.75978007264481350891 0.69484935654092438995 1.1391148409647049444 1.2073020455562073483 1.2002647450321894951 1.200259763071598762 1.2073061524083277263 1.1391117819395670807 0.69485074557750170499 0.69949040306381693455 1.1683071573037413504 1.2536743897050135477 1.2517062243014700496 1.2517039553534377028 1.2536762809955168674 1.1683063180587429652 0.69949033083201039851 0.61087684389853247335 1.0830518075387964849 1.1869646898959627102 1.1935725356284678789 1.1935857139909116231 1.1869536252874561821 1.0830587888823890452 0.61087526884822462847 0.95241561810638064589 1.0168425511443004439 1.0078070733992905428 1.0069985294733858616 1.0069967272354729548 1.0078088640967703959 1.0168410867414412468 0.95241612043931478393 0.92734424226457468077 1.0800014923698124658 1.0595932777176459982 1.0516563520701991408 1.0516653299541940392 1.0595855274376775323 1.0800069126737426028 0.92734240316348270916 0.87608863427157057657 1.1356424907193287677 1.126837295189294208 1.1133918630478547573 1.1133849669828583817 1.1268428681867987962 1.1356388870425424553 0.87608983858987743432 0.82309075192146685662 1.170567910579856985 1.1833464592113844827 1.1678474174622663906 1.1678552687051386716 1.1833405494536415326 1.1705715729480481446 0.82308961618006992733 0.79171886848569628103 1.2106351855378725269 1.2499206061642453847 1.2360630978385949152 1.2360503771537931783 1.2499306321380942997 1.2106284714053687779 0.79172109537259616197 0.74009657460035627174 1.2073020521994846099 1.2749826255355254379 1.266587825532880407 1.2665945001583998053 1.2749771637662208335 1.2073061528174069412 0.74009462772276091158 0.75133031251525295158 1.2536743928063200926 1.3407793141718260532 1.337260241542422623 1.3372646361047573205 1.3407756314719190271 1.253676281184874286 0.75133029272149332023 0.66698089552370265487 1.1869646656574690535 1.2970591535480915368 1.3024734790153205122 1.3024525918573164329 1.2970766800324402546 1.1869536237967872605 0.66698344861290870256 0.95140563370198638626 1.016127665873650221 1.0069985201004789666 1.0061823013060198218 1.0061840389156277986 1.0069967266552291019 1.0161291873674556108 0.95140511275074735043 0.91954735293895939474 1.0723542957891354366 1.0516563606107447448 1.0435205909291709325 1.043510231727768911 1.0516653304845702266 1.0723479859770315148 0.91954948960467453034 0.86408013323719368159 1.1224692812294083666 1.1133918721346081071 1.0995072502915919088 1.0995157754399005334 1.1133849675409606128 1.1224737870078245194 0.86407864023287794808 0.81127138257566477897 1.1555241839982641761 1.1678474077332448022 1.1518651556512524703 1.1518548484138315668 1.1678552681064686691 1.155519242449117856 0.81127293685780343946 0.78363035832414884574 1.1977015477074759442 1.2360630910338685773 1.2217694215410883629 1.2217854815033661886 1.2360503767443866696 1.1977100869397547811 0.78362751593445334475 0.73729326606309486536 1.2002647240117441108 1.2665878442333629028 1.2578835211785086567 1.2578753631320973572 1.2665945013203274705 1.2002597617866137547 0.73729563234444595032 0.7522519796572558759 1.2517062211079832412 1.3372602389741323758 1.333338172493055529 1.3333329602137897751 1.3372646359517150749 1.2517039551617208382 0.75225202271009172783 0.67227378986853658649 1.1935725948006794539 1.3024734328610625411 1.3074231907922508888 1.3074479441958475334 1.3024525890195390865 1.1935857176255859624 0.672270817812521293 0.95140511871502053687 1.0161291697106300536 1.0069967467531955041 1.0061840261647181372 1.0061823005169234779 1.0069985306807447412 1.0161276541490553704 0.95140563796339527869 0.91954948338158115639 1.0723480030280614361 1.051665312129205887 1.0435102429909659527 1.0435205916283494254 1.0516563509627638862 1.0723543070376273523 0.91954734863482878726 0.86407863430799802806 1.1224738029554763852 1.1133849496622030273 1.0995157859852220383 1.0995072509400278804 1.1133918619854610288 1.1224692929109290063 0.86408012846740600565 0.81127294364873692167 1.1555192253478108189 1.1678552857715942537 1.1518548394526364476 1.1518651551039487124 1.1678474185186686896 1.1555241704977992079 0.81127138830038025841 0.78362752240738720033 1.1977100715910939943 1.2360503922739574101 1.221785470924250161 1.2217694209015148576 1.2360630987665963687 1.1977015386113323281 0.78363036269099262121 0.73729561577872526623 1.2002597975279312159 1.2665944604432319842 1.2578753887507003739 1.2578835227643374584 1.2665878230987246411 1.2002647471578469229 0.73729325434051840027 0.75225201854193235462 1.2517039584305231781 1.3372646424100169682 1.3333329531095454712 1.3333381720636983125 1.3372602419421673048 1.2517062244927739112 0.7522519765613191467 0.67227083322954828137 1.1935856229431252018 1.3024526843449106828 1.307447893368552716 1.3074231876616562165 1.3024734847258141457 1.1935725300055970433 0.67227380196293962111 0.95241611414473981156 1.0168411056243336077 1.0078088408992946778 1.0069967461726354596 1.0069985213075205444 1.0078070719645699782 1.0168425562777416715 0.95241561587031986491 0.92734241013346319082 1.0800068933486393075 1.0595855495737724894 1.0516653126597628187 1.0516563595034860157 1.0595932790910163046 1.0800014872489016593 0.92734424457400299602 0.87608984413559942706 1.1356388712475680158 1.1268428885227814717 1.1133849502202513015 1.1133918710721739664 1.126837296435075686 1.1356424854827271709 0.87608863683402882216 0.82308960889948090678 1.170571591978795789 1.1833405267973147179 1.1678552851729406825 1.167847408789636221 1.1833464578130206135 1.1705679178788612749 0.82309074830031836445 0.79172108917560224395 1.210628486309279328 1.249930615256320543 1.236050391865126441 1.2360630919624522317 1.2499206051355575831 1.2106351883876658171 0.79171886676127711802 0.74009464437643335266 1.2073061155551290113 1.274977210470374267 1.2665944616041504567 1.2665878417982261439 1.2749826284078462635 1.2073020432884393749 0.74009658044297388368 0.75133029840500109575 1.2536762731348549682 1.3407756292648251861 1.3372646422589313797 1.3372602393758565853 1.340779314034316938 1.253674389217377616 0.75133031476549771988 0.66698342984974456904 1.186953735206873306 1.2970765549445635312 1.3024526815056840512 1.302473438570119102 1.2970591458323075251 1.1869646966761353557 0.6669808878547640596 0.96084858396326811025 1.0257374983312805838 1.0168411053784163212 1.0161291703708208445 1.0161276648222894448 1.0168425522966275665 1.0257363584165386516 0.96084897488994069903 0.94447689873839579811 1.100038125810513634 1.0800068935923967661 1.072348002392894406 1.0723542968076840154 1.0800014911852104937 1.1000418612010915975 0.94447563349633600893 0.88029348880350222206 1.1434356615818868086 1.1356388715102718745 1.1224738022962454931 1.1224692821674340237 1.135642489766366614 1.1434333651143588906 0.88029424370411302192 0.80888325683735984306 1.1558449978200540098 1.1705715915992123133 1.1555192261224516148 1.1555241829905755768 1.1705679117303169345 1.1558472177475043186 0.80888257919700601306 0.75978007746261488897 1.1691109146909248739 1.2106284861916118967 1.1977100720945317303 1.1977015468076024352 1.2106351864360120896 1.1691064481645931927 0.7597815249729572562 0.69485073296743626869 1.1391118098664492209 1.2073061159645770424 1.2002597962442542734 1.2002647261387808797 1.207302049932067467 1.1391148426738435528 0.69484935447341888981 0.69949032397623700508 1.1683063315147315109 1.2536762733256177071 1.251703958240810266 1.2517062213013125938 1.253674392320098141 1.1683071581318089649 0.69949040212646129699 0.61087528585800987546 1.083058698344099513 1.1869537337134350441 1.1935856265879001281 1.1935725891883861571 1.1869646724349147693 1.0830518019589461254 0.61087684662126584545 0.90189446045595478285 0.96084858393550309774 0.95241611425847683137 0.95140511847397235545 0.95140563405609435144 0.95241561772356064797 0.96084897443671180017 0.90189432643923561628 0.81584335778437844233 0.94447689876863905045 0.92734241001681494421 0.91954948362473376555 0.91954735256673836297 0.92734424268907467148 0.94447563398438350024 0.81584378104262678111 0.68096250068529329269 0.88029348883305358342 0.87608984399850609037 0.86407863457718581124 0.86408013288863871892 0.87608863460048436167 0.88029424418339774494 0.68096225867987147939 0.57134240734900632042 0.80888325678917827322 0.82308960909549422347 0.81127294331873389677 0.81127138297205114714 0.82309075148276544809 0.8088825784113871098 0.57134260299554207041 0.50396861886214128212 0.75978007744182041172 0.79172108925751605302 0.78362752216428133156 0.78363035870520669768 0.79171886810974023696 0.75978152464524617571 0.50396815032798869538 0.43876624172609018926 0.69485073304609434874 0.74009464407755742865 0.73729561644232000095 0.73729326508861525724 0.74009657560141639543 0.69484935576890582976 0.43876673431735296882 0.43927166453620841713 0.69949032400805155607 0.751330298286594922 0.75225201872006874915 0.75225197941173205241 0.75133031285799900534 0.6994904026407350317 0.43927158240080127483 0.36445016191390905425 0.61087528575521410357 0.66698343025343154178 0.67227083253635033788 0.67227379077660609497 0.66698089439056429395 0.6108768449457631089 0.36444976032339188032 
        </DataArray>
      </CellData>
      <Points>
        <DataArray Name="m" NumberOfComponents="3" type="Float32" format="ascii">
0 0 0 0.125 0 0 0.25 0 0 0.375 0 0 0.5 0 0 0.625 0 0 0.75 0 0 0.875 0 0 1 0 0 0 0.125 0 0.125 0.125 0 0.25 0.125 0 0.375 0.125 0 0.5 0.125 0 0.625 0.125 0 0.75 0.125 0 0.875 0.125 0 1 0.125 0 0 0.25 0 0.125 0.25 0 0.25 0.25 0 0.375 0.25 0 0.5 0.25 0 0.625 0.25 0 0.75 0.25 0 0.875 0.25 0 1 0.25 0 0 0.375 0 0.125 0.375 0 0.25 0.375 0 0.375 0.375 0 0.5 0.375 0 0.625 0.375 0 0.75 0.375 0 0.875 0.375 0 1 0.375 0 0 0.5 0 0.125 0.5 0 0.25 0.5 0 0.375 0.5 0 0.5 0.5 0 0.625 0.5 0 0.75 0.5 0 0.875 0.5 0 1 0.5 0 0 0.625 0 0.125 0.625 0 0.25 0.625 0 0.375 0.625 0 0.5 0.625 0 0.625 0.625 0 0.75 0.625 0 0.875 0.625 0 1 0.625 0 0 0.75 0 0.125 0.75 0 0.25 0.75 0 0.375 0.75 0 0.5 0.75 0 0.625 0.75 0 0.75 0.75 0 0.875 0.75 0 1 0.75 0 0 0.875 0 0.125 0.875 0 0.25 0.875 0 0.375 0.875 0 0.5 0.875 0 0.625 0.875 0 0.75 0.875 0 0.875 0.875 0 1 0.875 0 0 1 0 0.125 1 0 0.25 1 0 0.375 1 0 0.5 1 0 0.625 1 0 0.75 1 0 0.875 1 0 1 1 0 0 0 0.125 0.125 0 0.125 0.25 0 0.125 0.375 0 0.125 0.5 0 0.125 0.625 0 0.125 0.75 0 0.125 0.875 0 0.125 1 0 0.125 0 0.125 0.125 0.125 0.125 0.125 0.25 0.125 0.125 0.375 0.125 0.125 0.5 0.125 0.125 0.625 0.125 0.125 0.75 0.125 0.125 0.875 0.125 0.125 1 0.125 0.125 0 0.25 0.125 0.125 0.25 0.125 0.25 0.25 0.125 0.375 0.25 0.125 0.5 0.25 0.125 0.625 0.25 0.125 0.75 0.25 0.125 0.875 0.25 0.125 1 0.25 0.125 0 0.375 0.125 0.125 0.375 0.125 0.25 0.375 0.125 0.375 0.375 0.125 0.5 0.375 0.125 0.625 0.375 0.125 0.75 0.375 0.125 0.875 0.375 0.125 1 0.375 0.125 0 0.5 0.125 0.125 0.5 0.125 0.25 0.5 0.125 0.375 0.5 0.125 0.5 0.5 0.125 0.625 0.5 0.125 0.75 0.5 0.125 0.875 0.5 0.125 1 0.5 0.125 0 0.625 0.125 0.125 0.625 0.125 0.25 0.625 0.125 0.375 0.625 0.125 0.5 0.625 0.125 0.625 0.625 0.125 0.75 0.625 0.125 0.875 0.625 0.125 1 0.625 0.125 0 0.75 0.125 0.125 0.75 0.125 0.25 0.75 0.125 0.375 0.75 0.125 0.5 0.75 0.125 0.625 0.75 0.125 0.75 0.75 0.125 0.875 0.75 0.125 1 0.75 0.125 0 0.875 0.125 0.125 0.875 0.125 0.25 0.875 0.125 0.375 0.875 0.125 0.5 0.875 0.125 0.625 0.875 0.125 0.75 0.875 0.125 0.875 0.875 0.125 1 0.875 0.125 0 1 0.125 0.125 1 0.125 0.25 1 0.125 0.375 1 0.125 0.5 1 0.125 0.625 1 0.125 0.75 1 0.125 0.875 1 0.125 1 1 0.125 0 0 0.25 0.125 0 0.25 0.25 0 0.25 0.375 0 0.25 0.5 0 0.25 0.625 0 0.25 0.75 0 0.25 0.875 0 0.25 1 0 0.25 0 0.125 0.25 0.125 0.125 0.25 0.25 0.125 0.25 0.375 0.125 0.25 0.5 0.125 0.25 0.625 0.125 0.25 0.75 0.125 0.25 0.875 0.125 0.25 1 0.125 0.25 0 0.25 0.25 0.125 0.25 0.25 0.25 0.25 0.25 0.375 0.25 0.25 0.5 0.25 0.25 0.625 0.25 0.25 0.75 0.25 0.25 0.875 0.25 0.25 1 0.25 0.25 0 0.375 0.25 0.125 0.375 0.25 0.25 0.375 0.25 0.375 0.375 0.25 0.5 0.375 0.25 0.625 0.375 0.25 0.75 0.375 0.25 0.875 0.375 0.25 1 0.375 0.25 0 0.5 0.25 0.125 0.5 0.25 0.25 0.5 0.25 0.375 0.5 0.25 0.5 0.5 0.25 0.625 0.5 0.25 0.75 0.5 0.25 0.875 0.5 0.25 1 0.5 0.25 0 0.625 0.25 0.125 0.625 0.25 0.25 0.625 0.25 0.375 0.625 0.25 0.5 0.625 0.25 0.625 0.625 0.25 0.75 0.625 0.25 0.875 0.625 0.25 1 0.625 0.25 0 0.75 0.25 0.125 0.75 0.25 0.25 0.75 0.25 0.375 0.75 0.25 0.5 0.75 0.25 0.625 0.75 0.25 0.75 0.75 0.25 0.875 0.75 0.25 1 0.75 0.25 0 0.875 0.25 0.125 0.875 0.25 0.25 0.875 0.25 0.375 0.875 0.25 0.5 0.875 0.25 0.625 0.875 0.25 0.75 0.875 0.25 0.875 0.875 0.25 1 0.875 0.25 0 1 0.25 0.125 1 0.25 0.25 1 0.25 0.375 1 0.25 0.5 1 0.25 0.625 1 0.25 0.75 1 0.25 0.875 1 0.25 1 1 0.25 0 0 0.375 0.125 0 0.375 0.25 0 0.375 0.375 0 0.375 0.5 0 0.375 0.625 0 0.375 0.75 0 0.375 0.875 0 0.375 1 0 0.375 0 0.125 0.375 0.125 0.125 0.375 0.25 0.125 0.375 0.375 0.125 0.375 0.5 0.125 0.375 0.625 0.125 0.375 0.75 0.125 0.375 0.875 0.125 0.375 1 0.125 0.375 0 0.25 0.375 0.125 0.25 0.375 0.25 0.25 0.375 0.375 0.25 0.375 0.5 0.25 0.375 0.625 0.25 0.375 0.75 0.25 0.375 0.875 0.25 0.375 1 0.25 0.375 0 0.375 0.375 0.125 0.375 0.375 0.25 0.375 0.375 0.375 0.375 0.375 0.5 0.375 0.375 0.625 0.375 0.375 0.75 0.375 0.375 0.875 0.375 0.375 1 0.375 0.375 0 0.5 0.375 0.125 0.5 0.375 0.25 0.5 0.375 0.375 0.5 0.375 0.5 0.5 0.375 0.625 0.5 0.375 0.75 0.5 0.375 0.875 0.5 0.375 1 0.5 0.375 0 0.625 0.375 0.125 0.625 0.375 0.25 0.625 0.375 0.375 0.625 0.375 0.5 0.625 0.375 0.625 0.625 0.375 0.75 0.625 0.375 0.875 0.625 0.375 1 0.625 0.375 0 0.75 0.375 0.125 0.75 0.375 0.25 0.75 0.375 0.375 0.75 0.375 0.5 0.75 0.375 0.625 0.75 0.375 0.75 0.75 0.375 0.875 0.75 0.375 1 0.75 0.375 0 0.875 0.375 0.125 0.875 0.375 0.25 0.875 0.375 0.375 0.875 0.375 0.5 0.875 0.375 0.625 0.875 0.375 0.75 0.875 0.375 0.875 0.875 0.375 1 0.875 0.375 0 1 0.375 0.125 1 0.375 0.25 1 0.375 0.375 1 0.375 0.5 1 0.375 0.625 1 0.375 0.75 1 0.375 0.875 1 0.375 1 1 0.375 0 0 0.5 0.125 0 0.5 0.25 0 0.5 0.375 0 0.5 0.5 0 0.5 0.625 0 0.5 0.75 0 0.5 0.875 0 0.5 1 0 0.5 0 0.125 0.5 0.125 0.125 0.5 0.25 0.125 0.5 0.375 0.125 0.5 0.5 0.125 0.5 0.625 0.125 0.5 0.75 0.125 0.5 0.875 0.125 0.5 1 0.125 0.5 0 0.25 0.5 0.125 0.25 0.5 0.25 0.25 0.5 0.375 0.25 0.5 0.5 0.25 0.5 0.625 0.25 0.5 0.75 0.25 0.5 0.875 0.25 0.5 1 0.25 0.5 0 0.375 0.5 0.125 0.375 0.5 0.25 0.375 0.5 0.375 0.375 0.5 0.5 0.375 0.5 0.625 0.375 0.5 0.75 0.375 0.5 0.875 0.375 0.5 1 0.375 0.5 0 0.5 0.5 0.125 0.5 0.5 0.25 0.5 0.5 0.375 0.5 0.5 0.5 0.5 0.5 0.625 0.5 0.5 0.75 0.5 0.5 0.875 0.5 0.5 1 0.5 0.5 0 0.625 0.5 0.125 0.625 0.5 0.25 0.625 0.5 0.375 0.625 0.5 0.5 0.625 0.5 0.625 0.625 0.5 0.75 0.625 0.5 0.875 0.625 0.5 1 0.625 0.5 0 0.75 0.5 0.125 0.75 0.5 0.25 0.75 0.5 0.375 0.75 0.5 0.5 0.75 0.5 0.625 0.75 0.5 0.75 0.75 0.5 0.875 0.75 0.5 1 0.75 0.5 0 0.875 0.5 0.125 0.875 0.5 0.25 0.875 0.5 0.375 0.875 0.5 0.5 0.875 0.5 0.625 0.875 0.5 0.75 0.875 0.5 0.875 0.875 0.5 1 0.875 0.5 0 1 0.5 0.125 1 0.5 0.25 1 0.5 0.375 1 0.5 0.5 1 0.5 0.625 1 0.5 0.75 1 0.5 0.875 1 0.5 1 1 0.5 0 0 0.625 0.125 0 0.625 0.25 0 0.625 0.375 0 0.625 0.5 0 0.625 0.625 0 0.625 0.75 0 0.625 0.875 0 0.625 1 0 0.625 0 0.125 0.625 0.125 0.125 0.625 0.25 0.125 0.625 0.375 0.125 0.625 0.5 0.125 0.625 0.625 0.125 0.625 0.75 0.125 0.625 0.875 0.125 0.625 1 0.125 0.625 0 0.25 0.625 0.125 0.25 0.625 0.25 0.25 0.625 0.375 0.25 0.625 0.5 0.25 0.625 0.625 0.25 0.625 0.75 0.25 0.625 0.875 0.25 0.625 1 0.25 0.625 0 0.375 0.625 0.125 0.375 0.625 0.25 0.375 0.625 0.375 0.375 0.625 0.5 0.375 0.625 0.625 0.375 0.625 0.75 0.375 0.625 0.875 0.375 0.625 1 0.375 0.625 0 0.5 0.625 0.125 0.5 0.625 0.25 0.5 0.625 0.375 0.5 0.625 0.5 0.5 0.625 0.625 0.5 0.625 0.75 0.5 0.625 0.875 0.5 0.625 1 0.5 0.625 0 0.625 0.625 0.125 0.625 0.625 0.25 0.625 0.625 0.375 0.625 0.625 0.5 0.625 0.625 0.625 0.625 0.625 0.75 0.625 0.625 0.875 0.625 0.625 1 0.625 0.625 0 0.75 0.625 0.125 0.75 0.625 0.25 0.75 0.625 0.375 0.75 0.625 0.5 0.75 0.625 0.625 0.75 0.625 0.75 0.75 0.625 0.875 0.75 0.625 1 0.75 0.625 0 0.875 0.625 0.125 0.875 0.625 0.25 0.875 0.625 0.375 0.875 0.625 0.5 0.875 0.625 0.625 0.875 0.625 0.75 0.875 0.625 0.875 0.875 0.625 1 0.875 0.625 0 1 0.625 0.125 1 0.625 0.25 1 0.625 0.375 1 0.625 0.5 1 0.625 0.625 1 0.625 0.75 1 0.625 0.875 1 0.625 1 1 0.625 0 0 0.75 0.125 0 0.75 0.25 0 0.75 0.375 0 0.75 0.5 0 0.75 0.625 0 0.75 0.75 0 0.75 0.875 0 0.75 1 0 0.75 0 0.125 0.75 0.125 0.125 0.75 0.25 0.125 0.75 0.375 0.125 0.75 0.5 0.125 0.75 0.625 0.125 0.75 0.75 0.125 0.75 0.875 0.125 0.75 1 0.125 0.75 0 0.25 0.75 0.125 0.25 0.75 0.25 0.25 0.75 0.375 0.25 0.75 0.5 0.25 0.75 0.625 0.25 0.75 0.75 0.25 0.75 0.875 0.25 0.75 1 0.25 0.75 0 0.375 0.75 0.125 0.375 0.75 0.25 0.375 0.75 0.375 0.375 0.75 0.5 0.375 0.75 0.625 0.375 0.75 0.75 0.375 0.75 0.875 0.375 0.75 1 0.375 0.75 0 0.5 0.75 0.125 0.5 0.75 0.25 0.5 0.75 0.375 0.5 0.75 0.5 0.5 0.75 0.625 0.5 0.75 0.75 0.5 0.75 0.875 0.5 0.75 1 0.5 0.75 0 0.625 0.75 0.125 0.625 0.75 0.25 0.625 0.75 0.375 0.625 0.75 0.5 0.625 0.75 0.625 0.625 0.75 0.75 0.625 0.75 0.875 0.625 0.75 1 0.625 0.75 0 0.75 0.75 0.125 0.75 0.75 0.25 0.75 0.75 0.375 0.75 0.75 0.5 0.75 0.75 0.625 0.75 0.75 0.75 0.75 0.75 0.875 0.75 0.75 1 0.75 0.75 0 0.875 0.75 0.125 0.875 0.75 0.25 0.875 0.75 0.375 0.875 0.75 0.5 0.875 0.75 0.625 0.875 0.75 0.75 0.875 0.75 0.875 0.875 0.75 1 0.875 0.75 0 1 0.75 0.125 1 0.75 0.25 1 0.75 0.375 1 0.75 0.5 1 0.75 0.625 1 0.75 0.75 1 0.75 0.875 1 0.75 1 1 0.75 0 0 0.875 0.125 0 0.875 0.25 0 0.875 0.375 0 0.875 0.5 0 0.875 0.625 0 0.875 0.75 0 0.875 0.875 0 0.875 1 0 0.875 0 0.125 0.875 0.125 0.125 0.875 0.25 0.125 0.875 0.375 0.125 0.875 0.5 0.125 0.875 0.625 0.125 0.875 0.75 0.125 0.875 0.875 0.125 0.875 1 0.125 0.875 0 0.25 0.875 0.125 0.25 0.875 0.25 0.25 0.875 0.375 0.25 0.875 0.5 0.25 0.875 0.625 0.25 0.875 0.75 0.25 0.875 0.875 0.25 0.875 1 0.25 0.875 0 0.375 0.875 0.125 0.375 0.875 0.25 0.375 0.875 0.375 0.375 0.875 0.5 0.375 0.875 0.625 0.375 0.875 0.75 0.375 0.875 0.875 0.375 0.875 1 0.375 0.875 0 0.5 0.875 0.125 0.5 0.875 0.25 0.5 0.875 0.375 0.5 0.875 0.5 0.5 0.875 0.625 0.5 0.875 0.75 0.5 0.875 0.875 0.5 0.875 1 0.5 0.875 0 0.625 0.875 0.125 0.625 0.875 0.25 0.625 0.875 0.375 0.625 0.875 0.5 0.625 0.875 0.625 0.625 0.875 0.75 0.625 0.875 0.875 0.625 0.875 1 0.625 0.875 0 0.75 0.875 0.125 0.75 0.875 0.25 0.75 0.875 0.375 0.75 0.875 0.5 0.75 0.875 0.625 0.75 0.875 0.75 0.75 0.875 0.875 0.75 0.875 1 0.75 0.875 0 0.875 0.875 0.125 0.875 0.875 0.25 0.875 0.875 0.375 0.875 0.875 0.5 0.875 0.875 0.625 0.875 0.875 0.75 0.875 0.875 0.875 0.875 0.875 1 0.875 0.875 0 1 0.875 0.125 1 0.875 0.25 1 0.875 0.375 1 0.875 0.5 1 0.875 0.625 1 0.875 0.75 1 0.875 0.875 1 0.875 1 1 0.875 0 0 1 0.125 0 1 0.25 0 1 0.375 0 1 0.5 0 1 0.625 0 1 0.75 0 1 0.875 0 1 1 0 1 0 0.125 1 0.125 0.125 1 0.25 0.125 1 0.375 0.125 1 0.5 0.125 1 0.625 0.125 1 0.75 0.125 1 0.875 0.125 1 1 0.125 1 0 0.25 1 0.125 0.25 1 0.25 0.25 1 0.375 0.25 1 0.5 0.25 1 0.625 0.25 1 0.75 0.25 1 0.875 0.25 1 1 0.25 1 0 0.375 1 0.125 0.375 1 0.25 0.375 1 0.375 0.375 1 0.5 0.375 1 0.625 0.375 1 0.75 0.375 1 0.875 0.375 1 1 0.375 1 0 0.5 1 0.125 0.5 1 0.25 0.5 1 0.375 0.5 1 0.5 0.5 1 0.625 0.5 1 0.75 0.5 1 0.875 0.5 1 1 0.5 1 0 0.625 1 0.125 0.625 1 0.25 0.625 1 0.375 0.625 1 0.5 0.625 1 0.625 0.625 1 0.75 0.625 1 0.875 0.625 1 1 0.625 1 0 0.75 1 0.125 0.75 1 0.25 0.75 1 0.375 0.75 1 0.5 0.75 1 0.625 0.75 1 0.75 0.75 1 0.875 0.75 1 1 0.75 1 0 0.875 1 0.125 0.875 1 0.25 0.875 1 0.375 0.875 1 0.5 0.875 1 0.625 0.875 1 0.75 0.875 1 0.875 0.875 1 1 0.875 1 0 1 1 0.125 1 1 0.25 1 1 0.375 1 1 0.5 1 1 0.625 1 1 0.75 1 1 0.875 1 1 1 1 1         </DataArray>
      </Points>
    </Piece>
  </StructuredGrid>
</VTKFile>
