# vtk DataFile Version 2.0
Interface from PLIC
ASCII
DATASET POLYDATA
POINTS 138 float
0.4499127249960026 0 0
0.4341455227652476 0.125 0
0.4134763480106021 0.125 0.125
0.4292435502413571 0 0.125
0.375 0.25 0.049740989725937
0.375 0.2196758140820572 0.125
0.3615327256635609 0.25 0.125
0.4166906651315163 0.125 0.125
0.375 0.2189359253240107 0.125
0.375 0.25 0.0479550241679705
0.3835813441331317 0.25 0
0.4390588744120342 0.125 0
0.25 0.375 0.07851783037949181
0.2337657228229456 0.375 0.125
0.25 0.3660001893259295 0.125
0.2776207781702104 0.375 0
0.375 0.2717545972900716 0
0.375 0.25 0.08259356837784942
0.3644650585814569 0.25 0.125
0.25 0.3713605001908403 0.125
0.25 0.375 0.1111822642662208
0.375 0.25 0.05850861652624964
0.375 0.2645611314152486 0
0.3846803151819837 0.25 0
0.125 0.4315607504437772 0.125
0 0.4503260117691006 0.125
0 0.4702685354479895 0
0.125 0.4515032741226661 0
0.125 0.4341201169802132 0.125
0.2390160575091473 0.375 0.125
0.25 0.375 0.09533733435519207
0.25 0.3933054472266069 0
0.125 0.4581210072799246 0
0.25 0.375 0.1121841861495776
0.2763234212364175 0.375 0
0.25 0.3950643821370324 0
0.3666716030628051 0 0.25
0.375 0 0.2345940615825005
0.375 0.125 0.202284870523615
0.3492053663061776 0.125 0.25
0.4143747577091407 0.125 0.125
0.375 0.125 0.199457678444127
0.375 0 0.2324863373037103
0.4318409944657681 0 0.125
0.3510189536392271 0.125 0.25
0.375 0.125 0.2118056892296991
0.375 0.2283843948608169 0.125
0.3636045875399953 0.25 0.125
0.2851208884067855 0.25 0.25
0.375 0.2172353296224036 0.125
0.375 0.125 0.2050126213615047
0.4172928358441333 0.125 0.125
0.05933176319750884 0.375 0.25
0.125 0.375 0.2291598905563373
0.125 0.362936236057117 0.25
0.125 0.3666473073193894 0.25
0.125 0.375 0.2373056364748549
0.2415860891961371 0.375 0.125
0.25 0.3696670403883105 0.125
0.25 0.2874189951824063 0.25
0.2786370049283483 0.25 0.25
0.25 0.2821617236377217 0.25
0.25 0.375 0.1294893842201451
0.2530794759545591 0.375 0.125
0.3643802773781829 0.25 0.125
0.125 0.4336922159632134 0.125
0.125 0.375 0.2337930676274773
0.07708206692025128 0.375 0.25
0 0.3890648588794906 0.25
0 0.4565004699473114 0.125
0.2366956871820217 0.375 0.125
0.125 0.375 0.233399421729081
0.125 0.4355618707121512 0.125
0.25 0.375 0.1303488573670507
0.2536386561553147 0.375 0.125
0.25 0.3778263848226563 0.125
0.25 0 0.3648368572015994
0.2302528815594825 0 0.375
0.1966464250146256 0.125 0.375
0.25 0.125 0.3475408037119503
0.25 0.125 0.3467641357007921
0.3488880266948799 0.125 0.25
0.375 0.002245507496446822 0.25
0.375 0 0.2504673987196209
0.25 0 0.372782681639765
0.375 0.0009578306256569497 0.25
0.375 0 0.2501844432389385
0.3751338854950609 0 0.25
0.01567453531152592 0.25 0.375
0.125 0.2082429309356964 0.375
0.125 0.25 0.3565569361263639
0.25 0.125 0.3494519476972209
0.2073633528649897 0.125 0.375
0.125 0.2195415032279001 0.375
0.125 0.25 0.3591000876128071
0.25 0.25 0.2841995794247441
0.25 0.25 0.2802611188978459
0.2807847778457526 0.25 0.25
0.3487782869353463 0.125 0.25
0.25 0.125 0.3470980365833131
0 0.375 0.2720619301632333
0 0.2645406992376059 0.375
0.05783869480758749 0.25 0.375
0.125 0.25 0.3592652565637545
0.125 0.3672487871279774 0.25
0.09416791769311247 0.375 0.25
0.25 0.25 0.2775210868428539
0.25 0.2812860349491271 0.25
0.125 0.3747756228330468 0.25
0.125 0.25 0.3597601775822118
0.25 0.2777214865480082 0.25
0.2758122438850081 0.25 0.25
0.25 0.25 0.2753277527262085
0.105688770802518 0.375 0.25
0 0.375 0.2734988525723741
0 0.3932313727160622 0.25
0.1260775538555245 0.375 0.25
0.125 0.375 0.2506979319559064
0.125 0.3755529962792785 0.25
0 0 0.4431602901715201
0 0.125 0.427709177515187
0.125 0.125 0.4084667807298268
0.125 0 0.4239178933861599
0.125 0.125 0.4099912139028626
0.1942488547341663 0.125 0.375
0.2284783587149095 0 0.375
0.125 0 0.4272872673925118
0.125 0.125 0.4119687119284692
0.125 0.2088348227428999 0.375
0.01739607326384357 0.25 0.375
0 0.25 0.3779346949612312
0 0.125 0.4330560495471453
0.125 0.2089962494124999 0.375
0.2000244957230314 0.125 0.375
0.125 0.125 0.4130810662131787
0.02954085881956561 0.25 0.375
0 0.2570825821149401 0.375
0 0.25 0.379650765510139
POLYGONS 35 173
4 0 1 2 3
3 4 5 6
5 7 8 9 10 11
3 12 13 14
6 15 16 17 18 19 20
3 21 22 23
4 24 25 26 27
5 28 29 30 31 32
3 33 34 35
4 36 37 38 39
4 40 41 42 43
5 44 45 46 47 48
3 49 50 51
3 52 53 54
5 55 56 57 58 59
5 60 61 62 63 64
5 65 66 67 68 69
3 70 71 72
3 73 74 75
4 76 77 78 79
5 80 81 82 83 84
3 85 86 87
3 88 89 90
5 91 92 93 94 95
4 96 97 98 99
6 100 101 102 103 104 105
4 106 107 108 109
3 110 111 112
3 113 114 115
3 116 117 118
4 119 120 121 122
4 123 124 125 126
5 127 128 129 130 131
3 132 133 134
3 135 136 137
CELL_DATA 35
SCALARS cl float
LOOKUP_TABLE default
0
0
0
0
0
0
0
0
0
0
0
0
0
0
0
0
0
0
0
0
0
0
0
0
0
0
0
0
0
0
0
0
0
0
0
