<?xml version="1.0"?>
<VTKFile type="StructuredGrid" version="0.1" byte_order="LittleEndian">
  <StructuredGrid WholeExtent="0 32 0 32 0 1">
    <Piece Extent="0 32 0 32 0 1">
      <PointData>
      </PointData>
      <CellData>
        <DataArray Name="vx" NumberOfComponents="1" type="Float32" format="ascii">
0.0201885 0.0202183 0.0202382 0.020243 0.0202286 0.0201935 0.0201401 0.0200687 0.0199881 0.0199179 0.0198657 0.0198313 0.0198161 0.0198175 0.0198304 0.0198489 0.0198677 0.0198837 0.0198954 0.0199029 0.0199083 0.0199144 0.019923 0.0199348 0.0199504 0.0199698 0.0199929 0.0200194 0.0200493 0.0200822 0.0201174 0.0201536 0.0202183 0.0202627 0.0202966 0.0203111 0.0202984 0.020256 0.0201902 0.0200911 0.0199686 0.0198708 0.0198042 0.0197598 0.0197431 0.0197503 0.0197737 0.019805 0.0198374 0.0198671 0.0198917 0.0199086 0.0199197 0.0199287 0.0199368 0.0199458 0.0199572 0.0199723 0.019992 0.0200168 0.0200471 0.0200832 0.0201248 0.0201707 0.0202517 0.0203179 0.0203742 0.0204055 0.0203967 0.0203424 0.02027 0.0201324 0.0199291 0.0197955 0.0197206 0.0196619 0.0196467 0.0196669 0.0197091 0.0197596 0.0198095 0.0198556 0.0198952 0.0199199 0.0199335 0.0199438 0.0199498 0.0199543 0.0199603 0.0199704 0.0199861 0.0200087 0.0200393 0.0200789 0.0201281 0.0201865 0.0202848 0.0203834 0.0204769 0.0205392 0.0205378 0.0204581 0.020409 0.0202208 0.0198397 0.0196668 0.0196096 0.0195229 0.0195157 0.0195615 0.0196357 0.019714 0.0197854 0.0198512 0.0199124 0.0199417 0.0199513 0.0199629 0.0199642 0.0199614 0.0199596 0.0199628 0.0199732 0.0199926 0.0200226 0.0200651 0.0201223 0.0201958 0.0203093 0.0204553 0.0206112 0.0207329 0.0207478 0.0205817 0.0202752 0.0200778 0.0200095 0.0198064 0.0194879 0.0193172 0.0193332 0.0194278 0.0195565 0.0196738 0.0197669 0.0198538 0.0199568 0.0199825 0.0199712 0.0199904 0.0199827 0.0199675 0.0199541 0.019948 0.0199514 0.0199658 0.0199932 0.0200367 0.0201007 0.0201903 0.0203089 0.020521 0.0207837 0.0210402 0.0211954 0.0210771 0.0206531 0.0202139 0.0198686 0.0194492 0.0191614 0.0190629 0.0190721 0.0192604 0.0194847 0.0196542 0.0197539 0.0198523 0.0200635 0.0200491 0.0199692 0.0200395 0.02001 0.0199723 0.0199418 0.0199239 0.0199186 0.019926 0.0199476 0.0199878 0.0200537 0.0201563 0.0202512 0.020541 0.0209646 0.0213984 0.0215875 0.0213704 0.0208516 0.0202881 0.0197566 0.0191718 0.018564 0.0183252 0.0185864 0.0190459 0.019459 0.0196949 0.0197392 0.0197666 0.0199891 0.019735 0.0197517 0.020141 0.0200483 0.0199699 0.0199173 0.0198872 0.0198729 0.0198715 0.0198832 0.0199126 0.0199697 0.0200728 0.0200848 0.0204502 0.0211864 0.0226542 0.0232299 0.0222064 0.0211348 0.0203527 0.0196843 0.0188852 0.0177701 0.0166686 0.0172634 0.0188258 0.0195867 0.019904 0.0197653 0.019722 0.0198077 0.0203363 0.0211288 0.0207824 0.0201318 0.0199521 0.0198724 0.0198345 0.0198141 0.0198033 0.0198004 0.0198086 0.0198384 0.0199137 0.0197158 0.0199843 0.020829 0.0236825 0.0251749 0.0231114 0.0211943 0.0203154 0.0197344 0.0188545 0.01693 0.015018 0.0165426 0.0192855 0.0201894 0.0206165 0.021329 0.0213871 0.0205118 0.0200465 0.0196422 0.0195408 0.0197874 0.0197931 0.0197785 0.0197614 0.0197445 0.0197264 0.0197054 0.0196811 0.019658 0.0196531 0.0191026 0.0188086 0.0184313 0.0175492 0.0212111 0.0231465 0.0203297 0.0199728 0.0200885 0.019711 0.0165327 0.0181135 0.0221055 0.0216327 0.0213355 0.0210382 0.0205712 0.0202366 0.0200879 0.0196678 0.019138 0.0191772 0.0195544 0.0196676 0.0196903 0.0196889 0.0196761 0.0196524 0.019613 0.0195504 0.0194543 0.0193105 0.018577 0.0177751 0.0164057 0.0141743 0.0151352 0.0170548 0.017297 0.0190989 0.0210573 0.0230113 0.0238518 0.0258683 0.0263119 0.0239029 0.0224924 0.0216726 0.0211643 0.0208655 0.0205887 0.0203833 0.0201428 0.0198116 0.0196757 0.0196451 0.0196352 0.0196302 0.0196196 0.0195944 0.0195442 0.0194538 0.0192986 0.0190338 0.0183928 0.0172598 0.0147157 0.00832903 -0.0114487 -0.00994576 0.0107548 0.0177437 0.0222772 0.029077 0.049686 0.0517475 0.0322701 0.0256612 0.0231137 0.0219766 0.0213876 0.0210047 0.0207728 0.0205844 0.020226 0.0198525 0.0196614 0.0195901 0.0195734 0.0195767 0.0195777 0.0195621 0.0195167 0.0194248 0.0192572 0.0189558 0.0188747 0.0184422 0.017967 0.0178587 0.0254791 0.0270398 0.0199646 0.0197286 0.0203121 0.0201086 0.0130362 0.0144787 0.0222119 0.0223494 0.0219736 0.0216269 0.0213679 0.0211261 0.0208555 0.0205006 0.0200654 0.0197099 0.019529 0.019477 0.0194902 0.0195243 0.0195525 0.0195601 0.0195377 0.0194759 0.0193609 0.0191708 0.0194636 0.0195739 0.0201353 0.0220764 0.0252992 0.0246158 0.0214194 0.0203059 0.0197134 0.0186593 0.0155636 0.0149604 0.018228 0.0202372 0.0209454 0.0212246 0.0213323 0.0212831 0.0210189 0.0204696 0.0198237 0.0194085 0.0192712 0.0192964 0.019384 0.0194762 0.0195469 0.019588 0.0195987 0.0195812 0.0195403 0.0194886 0.0198878 0.0201859 0.0208623 0.0222922 0.0235059 0.0228535 0.0213631 0.0203757 0.0195853 0.0186313 0.017196 0.0165301 0.0178126 0.0194684 0.0204096 0.0210282 0.0214641 0.0216552 0.0214349 0.0205112 0.0193786 0.0188521 0.0188514 0.0190489 0.0192692 0.0194471 0.01957 0.0196458 0.0196873 0.0197086 0.0197267 0.019769 0.0201204 0.0204089 0.020924 0.0218204 0.0223249 0.0218019 0.0209661 0.020263 0.0196128 0.0189303 0.0181466 0.017683 0.0182696 0.0193532 0.0202156 0.0210406 0.0218542 0.0224232 0.022018 0.020179 0.0182876 0.0177889 0.0182173 0.0187634 0.0191895 0.0194698 0.0196393 0.0197377 0.0197958 0.0198377 0.0198855 0.0199663 0.0202137 0.0204017 0.0206401 0.0207724 0.0209231 0.0208628 0.0204854 0.0201009 0.019669 0.0192799 0.0189132 0.018863 0.0190818 0.0194152 0.0200694 0.0210948 0.0225705 0.0241971 0.0232935 0.0205004 0.0173894 0.0160435 0.0174207 0.0185728 0.0192465 0.0196019 0.0197807 0.0198705 0.0199206 0.0199601 0.0200095 0.0200875 0.0202493 0.0203649 0.020486 0.0205424 0.0204944 0.0202331 0.0200675 0.0199795 0.0196882 0.019559 0.0193518 0.0190613 0.0190054 0.0191223 0.0195671 0.020871 0.0251012 0.0303258 0.0278711 0.0210304 0.0131178 0.0113788 0.0166718 0.0187949 0.0196179 0.0199157 0.0200158 0.0200458 0.0200574 0.020073 0.0201049 0.0201618 0.0202596 0.0203276 0.0203961 0.0204415 0.0204683 0.0206 0.0204321 0.0199808 0.0196521 0.0191817 0.0189219 0.0189008 0.0187202 0.018442 0.0180295 0.0176068 0.0177368 0.0296511 0.0328339 0.0225511 0.00984897 0.00792087 0.0185375 0.0203431 0.0205535 0.0204527 0.0203319 0.020244 0.0201917 0.0201702 0.020176 0.0202066 0.0202555 0.0202908 0.0203246 0.0203447 0.0203462 0.0203437 0.0202021 0.0199281 0.0196619 0.0193496 0.0190977 0.0188945 0.0185382 0.0178533 0.0163599 0.0127114 0.00281901 -0.0274365 -0.017182 0.0342698 0.0616416 0.0523036 0.0304877 0.0243131 0.0220205 0.0210683 0.0206291 0.0204092 0.0202954 0.0202402 0.0202221 0.0202298 0.0202422 0.0202556 0.0202663 0.0202655 0.0202454 0.0201986 0.0200811 0.0198972 0.0196939 0.0194708 0.019259 0.0190436 0.018735 0.018228 0.0173214 0.0157238 0.0125104 0.0192506 0.0221501 0.00922633 0.0184044 0.0300915 0.0256313 0.0231325 0.0217806 0.0210623 0.0206728 0.0204568 0.0203362 0.0202715 0.0202418 0.020235 0.0202229 0.020223 0.0202195 0.0202055 0.0201744 0.0201187 0.0200235 0.0198916 0.019742 0.0195841 0.0194332 0.0192899 0.0191413 0.0190038 0.0189815 0.0194758 0.0220922 0.0251706 0.0219196 0.0143958 0.0112128 0.0154282 0.0201048 0.0209514 0.0209114 0.0207121 0.0205329 0.0204035 0.0203184 0.0202665 0.0202382 0.0202259 0.0202006 0.020194 0.0201831 0.0201629 0.0201288 0.0200762 0.0200003 0.0199041 0.0197982 0.0196926 0.019601 0.0195368 0.0195222 0.0196183 0.0199809 0.0209638 0.0236284 0.0248937 0.021733 0.0174814 0.0150278 0.0161946 0.01884 0.0199289 0.020292 0.0203698 0.0203502 0.0203073 0.0202674 0.0202377 0.0202185 0.0202073 0.020178 0.0201694 0.0201558 0.0201342 0.0201016 0.020056 0.0199966 0.0199265 0.0198534 0.019787 0.0197398 0.0197286 0.0197791 0.0199386 0.020289 0.0209317 0.0219612 0.0220464 0.0205489 0.0188645 0.0180504 0.0183138 0.0190504 0.0196554 0.0199882 0.0201409 0.0201979 0.020211 0.0202072 0.0201989 0.020191 0.0201845 0.0201578 0.0201499 0.0201367 0.0201162 0.0200873 0.0200492 0.0200028 0.0199516 0.0199017 0.0198614 0.0198415 0.0198558 0.0199229 0.0200675 0.0203159 0.0206683 0.0210368 0.0209255 0.0202582 0.0193452 0.0188044 0.0189323 0.0192698 0.0196153 0.0198615 0.020011 0.0200926 0.0201336 0.0201525 0.0201603 0.0201626 0.0201616 0.0201415 0.0201359 0.0201246 0.0201068 0.0200819 0.0200503 0.0200136 0.0199751 0.01994 0.0199149 0.0199083 0.0199296 0.0199892 0.0200964 0.0202519 0.020431 0.0205576 0.0204497 0.0200885 0.0196281 0.0193288 0.0193228 0.0194701 0.0196617 0.0198276 0.0199488 0.0200291 0.0200793 0.0201097 0.0201276 0.0201376 0.0201419 0.0201303 0.0201277 0.0201191 0.0201042 0.020083 0.0200563 0.020026 0.019995 0.0199679 0.01995 0.0199471 0.0199653 0.0200094 0.0200803 0.020171 0.0202579 0.0202943 0.0202122 0.0200096 0.0197637 0.0195925 0.0195586 0.019621 0.0197269 0.0198351 0.0199263 0.0199956 0.0200453 0.0200797 0.0201031 0.0201184 0.0201272 0.0201249 0.0201255 0.0201199 0.0201078 0.0200894 0.0200658 0.0200387 0.0200111 0.0199866 0.0199698 0.019965 0.0199758 0.0200037 0.0200468 0.0200969 0.020137 0.0201415 0.0200837 0.0199675 0.0198322 0.0197327 0.0197011 0.0197273 0.0197873 0.0198579 0.0199247 0.0199813 0.0200264 0.020061 0.020087 0.0201057 0.0201183 0.0201255 0.0201296 0.020127 0.0201175 0.0201011 0.0200786 0.0200519 0.0200237 0.0199977 0.0199779 0.0199677 0.0199695 0.0199836 0.0200073 0.0200337 0.0200517 0.0200472 0.0200097 0.0199428 0.0198672 0.0198098 0.0197877 0.0197999 0.0198359 0.0198833 0.0199325 0.0199782 0.0200179 0.0200511 0.0200781 0.0200994 0.0201153 0.0201321 0.0201402 0.0201412 0.020134 0.0201186 0.0200955 0.0200664 0.0200342 0.0200028 0.0199764 0.0199586 0.0199513 0.0199546 0.0199657 0.0199794 0.0199882 0.0199843 0.0199627 0.0199262 0.0198853 0.0198538 0.0198413 0.0198491 0.0198729 0.0199063 0.0199436 0.0199808 0.0200157 0.0200472 0.0200749 0.0200987 0.020118 0.0201449 0.020158 0.0201632 0.0201588 0.0201437 0.0201182 0.020084 0.0200439 0.0200028 0.0199665 0.0199392 0.0199231 0.0199179 0.0199217 0.0199299 0.0199372 0.0199381 0.0199298 0.0199134 0.0198944 0.0198798 0.0198753 0.0198826 0.0199002 0.0199253 0.0199546 0.0199856 0.0200168 0.0200471 0.0200758 0.0201023 0.0201258 0.0201638 0.0201837 0.0201948 0.020194 0.020179 0.0201495 0.0201072 0.0200546 0.0199982 0.0199478 0.0199091 0.019884 0.0198728 0.0198733 0.0198814 0.0198921 0.0199007 0.0199044 0.0199032 0.0198992 0.0198962 0.0198979 0.0199059 0.0199202 0.0199399 0.0199636 0.0199902 0.0200187 0.0200485 0.0200789 0.0201092 0.0201381 
        </DataArray>
        <DataArray Name="vy" NumberOfComponents="1" type="Float32" format="ascii">
0.0100308 0.010064 0.0101098 0.0101658 0.0102269 0.0102852 0.0103334 0.0103682 0.0103698 0.0103387 0.0102928 0.0102338 0.0101686 0.0101041 0.0100456 0.00999639 0.00995846 0.0099331 0.00992116 0.00992166 0.00993061 0.00994515 0.00996141 0.00997607 0.00998699 0.0099934 0.00999571 0.00999519 0.00999378 0.00999384 0.00999811 0.0100095 0.00999099 0.0100312 0.0100906 0.0101672 0.0102531 0.0103353 0.010402 0.0104654 0.0104657 0.0104063 0.0103432 0.0102612 0.0101738 0.0100919 0.0100232 0.00997061 0.00993393 0.00991241 0.00990581 0.00991218 0.00992282 0.00993739 0.00995218 0.00996419 0.00997165 0.00997412 0.0099722 0.00996732 0.00996146 0.00995732 0.00995817 0.00996796 0.00993431 0.00997967 0.0100549 0.01016 0.010283 0.0103994 0.0104847 0.0106229 0.0106193 0.0104887 0.0104108 0.0102944 0.0101739 0.0100671 0.00998522 0.009929 0.00989423 0.009877 0.00987827 0.0098977 0.00991135 0.00992932 0.00994558 0.00995671 0.00996117 0.00995911 0.00995161 0.0099403 0.00992738 0.00991572 0.00990925 0.00991324 0.00985354 0.00989902 0.00999095 0.010136 0.0103183 0.0104858 0.0105172 0.0109162 0.0108946 0.0105207 0.0105062 0.0103322 0.0101613 0.0100186 0.00992222 0.00986598 0.00983646 0.00982337 0.00983469 0.00988505 0.00989735 0.00992276 0.0099439 0.0099557 0.00995707 0.00994946 0.00993473 0.00991483 0.00989188 0.00986875 0.0098497 0.00984139 0.00973951 0.00977283 0.00987715 0.0100796 0.0103779 0.0106642 0.0106746 0.0111331 0.0111093 0.0106749 0.0107164 0.0103725 0.0101211 0.00992675 0.00982 0.0097758 0.0097602 0.0097443 0.00976135 0.00989963 0.00987432 0.0099189 0.00995089 0.00996473 0.00996188 0.00994688 0.00992299 0.00989228 0.00985638 0.00981736 0.00977904 0.0097487 0.0095821 0.00957569 0.00966784 0.00992937 0.0103718 0.0109547 0.011098 0.0113362 0.0113225 0.0110668 0.0109133 0.010445 0.0100375 0.00975439 0.00965667 0.00965683 0.00967774 0.0096289 0.00959202 0.0100322 0.00982516 0.00992471 0.00997654 0.00999022 0.00997898 0.00995337 0.00991812 0.00987487 0.00982377 0.00976485 0.00969962 0.00963382 0.00937704 0.00927868 0.00930618 0.00967571 0.0103145 0.0113 0.011634 0.0117826 0.0117726 0.0115983 0.0112147 0.0104267 0.00981527 0.00941416 0.00939503 0.0095157 0.00964443 0.00950587 0.00932643 0.01056 0.0093873 0.00991803 0.010031 0.0100392 0.0100108 0.00996985 0.00992144 0.00986531 0.00979876 0.00971804 0.00961958 0.00950277 0.00913674 0.00884151 0.00857998 0.00870458 0.0106347 0.0120526 0.0123695 0.0123957 0.0123968 0.0123734 0.0120794 0.01074 0.00874204 0.00865805 0.00898066 0.00938835 0.00988546 0.00926956 0.00921288 0.0103142 0.0088261 0.010427 0.0102382 0.0101335 0.0100587 0.00999476 0.0099329 0.00986631 0.00978786 0.00968853 0.00955641 0.0093769 0.00893692 0.00832583 0.00729654 0.00566279 0.0118942 0.01387 0.0134586 0.0130703 0.013078 0.0134744 0.013898 0.0118941 0.00578321 0.00734384 0.00842014 0.00909769 0.00955116 0.00957725 0.00965547 0.00978465 0.00899248 0.0107164 0.010381 0.0101996 0.0100947 0.0100174 0.00994913 0.00987941 0.00979822 0.00969204 0.00954009 0.00930795 0.00898799 0.00824501 0.00677965 0.00393944 0.00885833 0.0170584 0.0146479 0.0134047 0.0134236 0.0147261 0.0174306 0.0086727 0.00386484 0.00672598 0.00826754 0.00903752 0.00933574 0.0100779 0.0101926 0.0102085 0.00955224 0.0101975 0.0102446 0.0101728 0.0100978 0.0100294 0.00996658 0.00990447 0.00983453 0.0097432 0.00960728 0.00938379 0.00941324 0.00893488 0.00786495 0.00525937 0.0018827 0.0203207 0.0147461 0.0125244 0.0125096 0.0147027 0.0206567 0.00210572 0.00495964 0.00774594 0.00894668 0.00952857 0.00988381 0.0101874 0.0104961 0.0105308 0.00997078 0.0100527 0.0101733 0.0101532 0.0100962 0.0100364 0.0099839 0.00993805 0.00989361 0.00984179 0.00976797 0.00964471 0.01012 0.0103244 0.010788 0.0118841 0.0137962 0.00549031 0.00825478 0.00891817 0.00889786 0.00817321 0.0053147 0.0138381 0.0119245 0.0107776 0.0103592 0.0102565 0.0103134 0.0104586 0.0107361 0.0106784 0.0103838 0.0103296 0.0102693 0.0101828 0.0101012 0.0100379 0.0099953 0.00997076 0.00996098 0.00996432 0.00998304 0.0100266 0.0107038 0.0114243 0.0130162 0.0167703 0.0206011 -0.00358746 0.00350987 0.00611364 0.00611426 0.00354596 -0.0038201 0.0202844 0.0167561 0.0129877 0.0114195 0.0108148 0.0106674 0.0107596 0.0109486 0.0110051 0.0108268 0.010599 0.0103828 0.0102087 0.0100892 0.0100193 0.00998876 0.00998856 0.0100147 0.0100705 0.0101711 0.0103536 0.0108679 0.0115074 0.012611 0.014348 0.0112621 0.00503012 0.00571465 0.00638622 0.00636275 0.00566062 0.00490886 0.0109381 0.0141406 0.012432 0.0113666 0.0108644 0.0107677 0.0109606 0.0112968 0.0115451 0.0113143 0.01086 0.0104565 0.0101824 0.0100284 0.00996139 0.00995124 0.00997897 0.010037 0.0101286 0.0102697 0.0104944 0.0107581 0.0111367 0.0115931 0.0119125 0.0100318 0.00761313 0.00716611 0.00715934 0.00712329 0.00705886 0.00739506 0.0096658 0.011635 0.0112387 0.0107671 0.0105078 0.0105831 0.0110294 0.0117265 0.012499 0.0120327 0.0110938 0.0104138 0.0100398 0.00988075 0.00984525 0.00987435 0.00993765 0.010024 0.0101347 0.0102805 0.0104799 0.0105553 0.0107135 0.0107712 0.010498 0.00996516 0.00878792 0.00814193 0.00791248 0.00786694 0.00799613 0.00851454 0.00959218 0.0100569 0.0101674 0.00997909 0.00982732 0.0100453 0.0109109 0.0124873 0.0143427 0.0130148 0.011117 0.0100819 0.00968361 0.00960582 0.00966089 0.00976065 0.00987153 0.00998532 0.0101048 0.0102368 0.0103876 0.0103712 0.0104109 0.0103272 0.0099813 0.00991442 0.00936979 0.00869001 0.00845311 0.00840643 0.00852771 0.0090508 0.00950128 0.00941074 0.00945188 0.00916504 0.00880362 0.00897873 0.0101583 0.0144529 0.0166682 0.0152489 0.0106514 0.00915732 0.00899599 0.00918627 0.00942442 0.00963221 0.00980087 0.00994034 0.0100625 0.0101757 0.0102819 0.0102423 0.0102422 0.0101682 0.00999843 0.00984269 0.00974794 0.00881257 0.00878046 0.00875414 0.00867444 0.00943538 0.00943049 0.00934338 0.0090695 0.00837024 0.00703077 0.00494132 0.00861208 0.0194956 0.0204871 0.0214371 0.00747467 0.00692733 0.00790032 0.00868889 0.00920759 0.00953961 0.00975884 0.00991306 0.0100299 0.0101232 0.0101963 0.0101602 0.0101456 0.0100862 0.00998421 0.00988817 0.00984077 0.00904245 0.00907654 0.00906761 0.00894914 0.0096167 0.00956671 0.00944743 0.00909906 0.00817858 0.00589423 0.000148837 -0.00518098 0.0334264 0.0273256 0.0371221 -0.00524418 0.00287116 0.00676705 0.00840914 0.00917093 0.00956158 0.0097842 0.00992501 0.0100223 0.0100922 0.0101394 0.0101136 0.0100922 0.0100415 0.00996244 0.00986545 0.00973934 0.00944882 0.00938381 0.00938054 0.0094127 0.00966482 0.00976344 0.00980789 0.00977818 0.00959389 0.00906937 0.00771079 0.00455845 0.0109766 0.00726574 0.0412373 0.00292885 0.00630908 0.00832704 0.00916132 0.0095582 0.00977108 0.0098991 0.00998394 0.0100437 0.0100852 0.0101095 0.0100921 0.0100676 0.0100243 0.00996249 0.00988513 0.0097907 0.00966028 0.00961243 0.00962392 0.00969237 0.009858 0.0100277 0.0102534 0.0106308 0.0114038 0.0132499 0.0179799 0.0167329 -0.0137952 -0.00968221 0.0205161 0.0207527 0.0138084 0.0112675 0.0104316 0.0101573 0.0100755 0.0100611 0.0100698 0.0100841 0.0100961 0.0101003 0.0100868 0.0100615 0.0100253 0.00997827 0.0099227 0.00986166 0.00980032 0.00978085 0.0098073 0.00988507 0.0100292 0.010227 0.0105224 0.0110142 0.0119125 0.0136713 0.016976 0.00650726 -0.00167239 0.00022431 0.00737343 0.0179751 0.0141964 0.0120073 0.0109903 0.010518 0.0102978 0.0101954 0.0101483 0.0101265 0.0101145 0.0101032 0.0100903 0.0100661 0.0100367 0.0100025 0.00996539 0.00992968 0.00990273 0.00990272 0.00993769 0.0100142 0.0101405 0.0103208 0.0105792 0.0109585 0.0115141 0.0122656 0.0129225 0.00712188 0.00421961 0.00500893 0.00871248 0.0123944 0.012256 0.0115277 0.010963 0.0106043 0.0103918 0.0102694 0.0101993 0.0101581 0.0101317 0.0101109 0.0100969 0.0100756 0.0100529 0.0100292 0.0100062 0.00998767 0.00997925 0.00999019 0.0100267 0.0100937 0.0101955 0.0103342 0.0105145 0.0107349 0.0109636 0.01107 0.0106659 0.00833357 0.00742332 0.00738717 0.0094406 0.0105653 0.0110654 0.0109772 0.0107526 0.0105467 0.0103937 0.0102892 0.0102201 0.0101743 0.0101426 0.0101184 0.0101034 0.0100861 0.0100699 0.0100549 0.0100424 0.0100351 0.0100367 0.0100522 0.0100853 0.0101387 0.0102133 0.0103072 0.0104143 0.0105174 0.0105721 0.0104803 0.0100713 0.00907908 0.00864238 0.00851329 0.00953709 0.0101843 0.0105348 0.010603 0.010541 0.0104424 0.0103489 0.0102736 0.0102172 0.0101761 0.0101459 0.0101227 0.0101077 0.0100954 0.0100854 0.0100778 0.0100734 0.0100735 0.0100805 0.0100966 0.0101239 0.0101629 0.0102125 0.0102685 0.010322 0.010355 0.0103349 0.0102101 0.00992439 0.00946781 0.00921333 0.00921741 0.00963394 0.0100121 0.0102607 0.0103632 0.0103723 0.0103369 0.0102876 0.0102398 0.0101993 0.010167 0.0101421 0.0101228 0.010109 0.0101023 0.0100985 0.0100976 0.0100996 0.0101051 0.010115 0.0101302 0.010151 0.0101769 0.0102059 0.0102336 0.010252 0.010248 0.0102024 0.010093 0.00990843 0.0096769 0.00954241 0.00955587 0.00974646 0.00995977 0.0101247 0.0102169 0.0102503 0.0102472 0.0102262 0.0101994 0.0101733 0.0101507 0.0101327 0.0101189 0.010107 0.0101063 0.0101089 0.0101142 0.0101222 0.0101323 0.0101445 0.0101583 0.0101732 0.0101881 0.0102011 0.0102087 0.0102053 0.0101829 0.0101322 0.0100456 0.00992602 0.00979853 0.00972353 0.00973179 0.00982699 0.00994906 0.0100561 0.010128 0.0101651 0.0101762 0.0101714 0.0101588 0.010144 0.0101301 0.0101189 0.0101112 0.0101015 0.0101071 0.0101163 0.0101284 0.0101425 0.0101576 0.0101723 0.0101853 0.0101955 0.0102015 0.010202 0.010195 0.0101776 0.0101459 0.0100965 0.0100284 0.00994771 0.00987123 0.00982673 0.00982993 0.00987983 0.00995099 0.01002 0.0100728 0.0101056 0.0101212 0.0101246 0.0101208 0.0101139 0.0101069 0.0101018 0.0100998 0.0100923 0.0101044 0.0101208 0.0101406 0.010162 0.0101832 0.0102017 0.0102153 0.0102219 0.0102204 0.0102105 0.0101919 0.010164 0.0101262 0.0100784 0.0100224 0.00996392 0.00991331 0.00988407 0.0098839 0.00991122 0.00995391 0.00999881 0.0100365 0.0100631 0.0100785 0.0100851 0.0100859 0.010084 0.010082 0.0100818 0.0100849 0.0100785 0.0100974 0.010122 0.010151 0.0101819 0.0102114 0.010236 0.0102522 0.0102563 0.0102476 0.0102277 0.0101981 0.0101604 0.0101163 0.010068 0.0100184 0.00997189 0.00993475 0.00991358 0.00991175 0.00992749 0.0099542 0.0099841 0.010011 0.0100314 0.0100445 0.0100514 0.0100539 0.0100544 0.0100552 0.0100584 0.0100657 0.0100588 0.0100847 0.010119 0.0101597 0.0102033 0.0102446 0.0102785 0.0103007 0.0103033 0.0102859 0.0102547 0.0102124 0.010163 0.0101105 0.0100588 0.010011 0.00997048 0.00994061 0.00992439 0.00992262 0.00993293 0.00995111 0.00997208 0.00999151 0.0100067 0.0100167 0.0100219 0.0100239 0.0100246 0.0100261 0.010031 0.0100412 
        </DataArray>
        <DataArray Name="vz" NumberOfComponents="1" type="Float32" format="ascii">
0 0 0 0 0 0 0 0 0 0 0 0 0 0 0 0 0 0 0 0 0 0 0 0 0 0 0 0 0 0 0 0 0 0 0 0 0 0 0 0 0 0 0 0 0 0 0 0 0 0 0 0 0 0 0 0 0 0 0 0 0 0 0 0 0 0 0 0 0 0 0 0 0 0 0 0 0 0 0 0 0 0 0 0 0 0 0 0 0 0 0 0 0 0 0 0 0 0 0 0 0 0 0 0 0 0 0 0 0 0 0 0 0 0 0 0 0 0 0 0 0 0 0 0 0 0 0 0 0 0 0 0 0 0 0 0 0 0 0 0 0 0 0 0 0 0 0 0 0 0 0 0 0 0 0 0 0 0 0 0 0 0 0 0 0 0 0 0 0 0 0 0 0 0 0 0 0 0 0 0 0 0 0 0 0 0 0 0 0 0 0 0 0 0 0 0 0 0 0 0 0 0 0 0 0 0 0 0 0 0 0 0 0 0 0 0 0 0 0 0 0 0 0 0 0 0 0 0 0 0 0 0 0 0 0 0 0 0 0 0 0 0 0 0 0 0 0 0 0 0 0 0 0 0 0 0 0 0 0 0 0 0 0 0 0 0 0 0 0 0 0 0 0 0 0 0 0 0 0 0 0 0 0 0 0 0 0 0 0 0 0 0 0 0 0 0 0 0 0 0 0 0 0 0 0 0 0 0 0 0 0 0 0 0 0 0 0 0 0 0 0 0 0 0 0 0 0 0 0 0 0 0 0 0 0 0 0 0 0 0 0 0 0 0 0 0 0 0 0 0 0 0 0 0 0 0 0 0 0 0 0 0 0 0 0 0 0 0 0 0 0 0 0 0 0 0 0 0 0 0 0 0 0 0 0 0 0 0 0 0 0 0 0 0 0 0 0 0 0 0 0 0 0 0 0 0 0 0 0 0 0 0 0 0 0 0 0 0 0 0 0 0 0 0 0 0 0 0 0 0 0 0 0 0 0 0 0 0 0 0 0 0 0 0 0 0 0 0 0 0 0 0 0 0 0 0 0 0 0 0 0 0 0 0 0 0 0 0 0 0 0 0 0 0 0 0 0 0 0 0 0 0 0 0 0 0 0 0 0 0 0 0 0 0 0 0 0 0 0 0 0 0 0 0 0 0 0 0 0 0 0 0 0 0 0 0 0 0 0 0 0 0 0 0 0 0 0 0 0 0 0 0 0 0 0 0 0 0 0 0 0 0 0 0 0 0 0 0 0 0 0 0 0 0 0 0 0 0 0 0 0 0 0 0 0 0 0 0 0 0 0 0 0 0 0 0 0 0 0 0 0 0 0 0 0 0 0 0 0 0 0 0 0 0 0 0 0 0 0 0 0 0 0 0 0 0 0 0 0 0 0 0 0 0 0 0 0 0 0 0 0 0 0 0 0 0 0 0 0 0 0 0 0 0 0 0 0 0 0 0 0 0 0 0 0 0 0 0 0 0 0 0 0 0 0 0 0 0 0 0 0 0 0 0 0 0 0 0 0 0 0 0 0 0 0 0 0 0 0 0 0 0 0 0 0 0 0 0 0 0 0 0 0 0 0 0 0 0 0 0 0 0 0 0 0 0 0 0 0 0 0 0 0 0 0 0 0 0 0 0 0 0 0 0 0 0 0 0 0 0 0 0 0 0 0 0 0 0 0 0 0 0 0 0 0 0 0 0 0 0 0 0 0 0 0 0 0 0 0 0 0 0 0 0 0 0 0 0 0 0 0 0 0 0 0 0 0 0 0 0 0 0 0 0 0 0 0 0 0 0 0 0 0 0 0 0 0 0 0 0 0 0 0 0 0 0 0 0 0 0 0 0 0 0 0 0 0 0 0 0 0 0 0 0 0 0 0 0 0 0 0 0 0 0 0 0 0 0 0 0 0 0 0 0 0 0 0 0 0 0 0 0 0 0 0 0 0 0 0 0 0 0 0 0 0 0 0 0 0 0 0 0 0 0 0 0 0 0 0 0 0 0 0 0 0 0 0 0 0 0 0 0 0 0 0 0 0 0 0 0 0 0 0 0 0 0 0 0 0 0 0 0 0 0 0 0 0 0 0 0 0 0 0 0 0 0 0 0 0 0 0 0 0 0 0 0 0 0 0 0 0 0 0 0 0 0 0 0 0 0 0 0 0 0 0 0 0 0 0 0 0 0 0 0 0 0 0 0 0 0 0 0 0 0 0 0 0 0 0 0 0 0 0 0 0 0 0 0 0 0 0 0 0 0 0 0 0 0 0 0 0 0 0 0 0 0 0 0 0 0 0 0 0 0 0 0 0 0 0 0 0 0 0 0 
        </DataArray>
        <DataArray Name="p" NumberOfComponents="1" type="Float32" format="ascii">