<?xml version="1.0"?>
<VTKFile type="StructuredGrid" version="0.1" byte_order="LittleEndian">
  <StructuredGrid WholeExtent="0 32 0 32 0 1">
    <Piece Extent="0 32 0 32 0 1">
      <PointData>
      </PointData>
      <CellData>
        <DataArray Name="vx" NumberOfComponents="1" type="Float32" format="ascii">
0.0209132 0.0208933 0.0208748 0.0208819 0.020885 0.0208831 0.0208575 0.0208004 0.0206963 0.020538 0.0203134 0.020024 0.0196654 0.0192618 0.0188288 0.018416 0.0180607 0.0178175 0.0176983 0.0177781 0.0180018 0.0184997 0.0190818 0.01997 0.0208444 0.0214598 0.0216289 0.0213313 0.0213001 0.0211588 0.021049 0.0209876 0.0207475 0.0207504 0.0207628 0.0207968 0.0208286 0.0208554 0.0208602 0.0208365 0.0207685 0.0206482 0.0204606 0.0202046 0.0198691 0.0194794 0.0190468 0.0186305 0.0182869 0.0180614 0.0179752 0.0180709 0.0183114 0.0187528 0.0192748 0.0199459 0.02058 0.0210141 0.0212041 0.0210897 0.021046 0.0209372 0.0208423 0.0207919 0.0205565 0.0205853 0.0206272 0.0206872 0.0207459 0.0208016 0.0208398 0.0208567 0.0208363 0.0207692 0.0206342 0.0204263 0.0201164 0.0197352 0.0192852 0.0188459 0.0184997 0.0182823 0.0182296 0.0183448 0.0186077 0.0190074 0.0194707 0.0199752 0.0204329 0.0207271 0.0208599 0.0208098 0.0207558 0.0206736 0.0205993 0.0205696 0.0203395 0.0203943 0.0204623 0.020546 0.0206287 0.0207128 0.0207864 0.0208497 0.0208864 0.0208854 0.0208211 0.0206833 0.020419 0.0200619 0.019569 0.0190656 0.0187023 0.0184836 0.0184603 0.0185985 0.018891 0.019268 0.0196926 0.0200812 0.0204106 0.020584 0.0206272 0.0205659 0.0204731 0.0203974 0.0203329 0.0203248 0.0201044 0.0201836 0.0202725 0.020375 0.0204766 0.0205865 0.0206967 0.0208108 0.0209144 0.0209949 0.0210254 0.0209952 0.0207833 0.0204372 0.0198628 0.0192687 0.0188765 0.018665 0.0187031 0.0188756 0.019211 0.019572 0.0199664 0.0202475 0.0204604 0.0204992 0.0204216 0.020317 0.0201743 0.0201037 0.0200473 0.0200643 0.0198388 0.0199444 0.0200532 0.0201729 0.0202911 0.0204233 0.0205639 0.020716 0.020872 0.0210263 0.0211877 0.0213327 0.0212837 0.0210546 0.0202661 0.0193877 0.0189616 0.0187919 0.0189142 0.0191544 0.0195453 0.0198901 0.020254 0.0204244 0.0205443 0.020447 0.0202264 0.0200553 0.0198425 0.0197755 0.0197243 0.0197722 0.0195756 0.0197103 0.0198353 0.0199669 0.0200943 0.0202384 0.0203945 0.0205604 0.0207622 0.0210361 0.0214722 0.0220584 0.0222467 0.0219761 0.0207347 0.0193846 0.0187474 0.0186546 0.0190788 0.0194725 0.0199643 0.0202647 0.0205594 0.0205572 0.0205481 0.0202363 0.0198359 0.0196394 0.0193928 0.019383 0.0193696 0.0194733 0.0192829 0.0194577 0.0196075 0.0197564 0.0198941 0.0200391 0.020187 0.0203327 0.0205973 0.021123 0.0222257 0.0236369 0.0246662 0.024817 0.0220579 0.0188732 0.0178061 0.0177952 0.018564 0.0194404 0.0202477 0.0205577 0.0207428 0.0205007 0.0204437 0.0199744 0.0193775 0.0191487 0.0188528 0.0189181 0.0189542 0.0191323 0.0190915 0.019297 0.0194601 0.0196158 0.0197539 0.0198873 0.0200266 0.0201864 0.0207185 0.0219595 0.0244718 0.0278926 0.0290992 0.0275646 0.0232058 0.0188445 0.0159527 0.0152443 0.0170744 0.0187531 0.0202707 0.0207588 0.0208548 0.0202958 0.0201154 0.0191813 0.0183056 0.0183297 0.0181608 0.0184529 0.0186095 0.0188905 0.0188864 0.0191291 0.0193186 0.019494 0.0196466 0.0197864 0.0199618 0.0202593 0.0213016 0.0234858 0.0272348 0.0299486 0.0268417 0.0218378 0.0206978 0.0205927 0.0165641 0.0125514 0.013054 0.0162643 0.0194199 0.0205336 0.0204846 0.0195203 0.0197216 0.0188164 0.0176771 0.0177764 0.0176024 0.0180421 0.0182728 0.0186369 0.0189929 0.019197 0.0193626 0.0195289 0.0196898 0.0198519 0.0201112 0.0204924 0.0217776 0.0230909 0.0248548 0.0211851 0.0159317 0.0162771 0.0197334 0.0229203 0.0238778 0.0180785 0.0123909 0.0151174 0.0182451 0.020139 0.0204217 0.0196449 0.0195081 0.0166193 0.0153045 0.0171173 0.0174591 0.0181712 0.0184397 0.0187825 0.0190095 0.019181 0.0193382 0.0195067 0.019672 0.0198549 0.0200973 0.0204203 0.0209474 0.0204945 0.0168505 0.0133538 0.0143746 0.017691 0.0214592 0.0250004 0.0284295 0.0309883 0.0265437 0.0209481 0.0208883 0.021438 0.0197453 0.0185865 0.0185035 0.0150516 0.0156792 0.018189 0.0180954 0.0185776 0.0186384 0.0188576 0.0195077 0.0194864 0.0195382 0.0196546 0.0198129 0.0200482 0.0203406 0.0206201 0.0204848 0.0191095 0.0156384 0.0146456 0.017437 0.019787 0.022136 0.0244968 0.0267871 0.0307875 0.0294247 0.0235518 0.0217548 0.022039 0.0215541 0.022499 0.0218642 0.0230982 0.0269336 0.024731 0.0217613 0.0206237 0.0199583 0.0196391 0.01956 0.019491 0.0195078 0.0195908 0.0196919 0.0198631 0.0199032 0.0196948 0.0182153 0.0164246 0.015594 0.0164867 0.0188379 0.0206576 0.0225261 0.0244075 0.0268004 0.0300167 0.0337473 0.0332354 0.0295842 0.027676 0.0296041 0.0305149 0.024893 0.0263796 0.0294715 0.0254118 0.022106 0.0207217 0.0201072 0.019725 0.0199105 0.0197084 0.0196172 0.0196055 0.0196106 0.0196803 0.0195243 0.0189865 0.0168795 0.0149043 0.015302 0.0171607 0.0192985 0.0207939 0.0224304 0.0241306 0.026395 0.029205 0.0345269 0.0358759 0.0306558 0.0272636 0.0238332 0.0235245 0.020988 0.0221832 0.0261821 0.0238642 0.0223603 0.021289 0.0207441 0.0201996 0.0198648 0.019654 0.0195322 0.0194607 0.0193798 0.0193107 0.0189298 0.0181586 0.0155271 0.0129546 0.0138059 0.0164616 0.0188251 0.0203982 0.0220089 0.0236628 0.0257406 0.028263 0.0330343 0.0339169 0.0294205 0.0268692 0.0240569 0.0242621 0.0228486 0.0200932 0.0173445 0.0174984 0.0207336 0.0205279 0.0204904 0.0201062 0.0200323 0.019744 0.0195461 0.0193789 0.01921 0.0189961 0.018592 0.0178894 0.0161094 0.0132048 0.0125562 0.0150198 0.0176759 0.0196061 0.0215068 0.0235291 0.0257145 0.0284789 0.0332286 0.033208 0.0280434 0.0253341 0.0244357 0.0232094 0.0250753 0.0249011 0.0198671 0.0199857 0.0214546 0.0210945 0.0208263 0.020362 0.0200221 0.0197289 0.0195318 0.0193507 0.0192219 0.0190507 0.0189974 0.0189885 0.019435 0.0182039 0.0137574 0.0131406 0.0165192 0.0187878 0.021205 0.0238637 0.0259204 0.0295245 0.0312751 0.0279204 0.0246496 0.0234291 0.0229688 0.0216763 0.0233032 0.0242647 0.0216655 0.0215063 0.0215933 0.0211879 0.0208053 0.0203546 0.0200611 0.0197675 0.0195581 0.0193477 0.019189 0.0190017 0.0189645 0.0192938 0.0204507 0.0217757 0.0168554 0.0121459 0.0142517 0.0172809 0.0213156 0.0258826 0.0276 0.0291263 0.0231691 0.0183477 0.0213285 0.0218008 0.0225915 0.022125 0.0227228 0.0229044 0.0218878 0.0219475 0.0216188 0.0212474 0.020805 0.0203824 0.0200548 0.0198055 0.0196316 0.0194455 0.0193299 0.0191981 0.0192852 0.0197145 0.0214604 0.0241588 0.0265926 0.0221681 0.0173477 0.0186733 0.0223757 0.0262406 0.0254865 0.0197427 0.0137422 0.0154946 0.0197485 0.0212855 0.0223004 0.0224209 0.0227475 0.0220531 0.0216624 0.0219918 0.021383 0.0211023 0.0206635 0.0203163 0.0200422 0.0198621 0.0197298 0.0195619 0.0194435 0.0193088 0.0193185 0.0195583 0.0207304 0.0231075 0.02694 0.0284022 0.0252408 0.0218535 0.0213834 0.0196177 0.0167036 0.013643 0.012541 0.0164466 0.0195732 0.0210536 0.0220162 0.0223399 0.0222613 0.0206869 0.0208193 0.0215906 0.0208354 0.0207643 0.0204145 0.0202015 0.020087 0.0199786 0.0198957 0.0197604 0.0196586 0.0195431 0.0195142 0.0195813 0.0200777 0.0212485 0.0231497 0.0252988 0.0250489 0.0226908 0.0183785 0.0139986 0.0129973 0.013451 0.0149795 0.0176818 0.0195989 0.0208105 0.0218214 0.0228158 0.0220002 0.0167691 0.0178715 0.0213084 0.0201836 0.0204312 0.0202221 0.0201392 0.020122 0.0200976 0.0200722 0.0199731 0.0198842 0.0197815 0.019731 0.0197259 0.0198998 0.0203605 0.0211792 0.0221476 0.0222134 0.0214655 0.0183894 0.0155105 0.0154834 0.0158417 0.0167753 0.0181643 0.0191947 0.0203299 0.0216211 0.0217277 0.0202781 0.0143821 0.0157723 0.0201621 0.0192193 0.0198449 0.019941 0.020035 0.0203005 0.0203047 0.0203066 0.0202267 0.020143 0.0200472 0.0199822 0.0199487 0.0199736 0.0201141 0.0203248 0.0206655 0.0205317 0.0200086 0.0185171 0.0170566 0.0167925 0.0168009 0.0172102 0.017753 0.0183902 0.019215 0.0207877 0.0196786 0.0186171 0.0222176 0.0204142 0.0186393 0.0203011 0.0195241 0.0200722 0.0201051 0.0204298 0.0204735 0.0204984 0.020445 0.0203708 0.0202805 0.0202012 0.0201412 0.0200962 0.0200867 0.0200564 0.0200377 0.0197443 0.0193214 0.0183869 0.0174792 0.0171674 0.0168949 0.0168555 0.0168671 0.0169206 0.0172069 0.0169211 0.0144493 0.0141949 0.0198676 0.0189066 0.0184026 0.020968 0.0198333 0.0202021 0.020211 0.0205801 0.0206742 0.0207012 0.0206561 0.0205793 0.0204864 0.0203903 0.0203023 0.0202051 0.020111 0.0199579 0.0197766 0.019405 0.0189404 0.0182427 0.0175469 0.0171085 0.0167137 0.0164935 0.0162413 0.0161431 0.0158026 0.0158762 0.0144016 0.0134085 0.015206 0.0161368 0.016233 0.0175645 0.0193636 0.0199342 0.0202986 0.0206614 0.0207996 0.0208199 0.0207953 0.0207245 0.020638 0.0205342 0.0204244 0.0202892 0.0201344 0.019913 0.0196412 0.0192321 0.0187555 0.01814 0.0175144 0.0170198 0.0165158 0.0161325 0.0155159 0.0150994 0.0132108 0.0128908 0.0119199 0.01084 0.0115658 0.0150882 0.0188814 0.0187929 0.0194194 0.0200066 0.0204361 0.0207425 0.0209114 0.020924 0.0209037 0.0208333 0.0207495 0.0206421 0.0205192 0.0203611 0.02017 0.0199109 0.0195942 0.0191719 0.0186879 0.0181193 0.0175383 0.0170137 0.0164961 0.0160259 0.0154041 0.0146383 0.0128545 0.0106305 0.00879155 0.00893248 0.00902496 0.0141116 0.0177875 0.0171012 0.0189949 0.019816 0.0204906 0.0209277 0.0210241 0.0209962 0.020967 0.020898 0.020821 0.020718 0.0205924 0.0204253 0.0202156 0.0199393 0.0196031 0.0191824 0.0187094 0.0181791 0.0176455 0.0171527 0.0167144 0.0163554 0.0161008 0.0158337 0.0157826 0.0150288 0.0175389 0.020482 0.0221294 0.0197093 0.0165595 0.0189121 0.0197929 0.0204082 0.0208207 0.0210186 0.021063 0.0210191 0.0209883 0.0209282 0.0208623 0.0207702 0.0206509 0.0204869 0.0202747 0.019997 0.0196588 0.0192483 0.0187909 0.0182919 0.0177963 0.0173328 0.0169442 0.0166377 0.0165067 0.0164349 0.0167749 0.0169919 0.0197181 0.0228644 0.0253523 0.0234061 0.0198308 0.0206039 0.0206192 0.0208047 0.0210036 0.0210819 0.0210688 0.021012 0.0209815 0.0209351 0.0208851 0.0208099 0.0207045 0.0205526 0.0203488 0.0200803 0.0197508 0.0193558 0.0189183 0.0184494 0.0179933 0.0175762 0.0172561 0.0170381 0.0170425 0.0171608 0.0177022 0.0182131 0.0198635 0.0217784 0.023329 0.0228446 0.0211876 0.0213012 0.0211395 0.0211208 0.021151 0.0210222 0.0209978 0.0209562 0.0209417 0.0209183 0.0208905 0.020838 0.0207536 0.0206219 0.0204362 0.0201855 0.0198726 0.0194953 0.0190765 0.0186301 0.0182012 0.0178183 0.0175399 0.0173721 0.0174186 0.017604 0.0181505 0.0187713 0.0200261 0.0212853 0.0222032 0.0222194 0.0214542 0.0214274 0.0212453 0.021144 0.0211058 
        </DataArray>
        <DataArray Name="vy" NumberOfComponents="1" type="Float32" format="ascii">
0.0110857 0.0110357 0.0110312 0.0110458 0.011094 0.0111688 0.0112793 0.0114191 0.0115923 0.0117868 0.0119997 0.0122116 0.0124155 0.0125856 0.0127243 0.0128142 0.012886 0.0129658 0.0130842 0.0132869 0.0135331 0.0138798 0.0140843 0.0143376 0.0138792 0.0133893 0.0123721 0.0120322 0.0117017 0.0114318 0.0112924 0.0111456 0.0111219 0.0110476 0.0110226 0.0110287 0.0110795 0.0111686 0.0113061 0.0114839 0.0117081 0.0119624 0.0122444 0.0125244 0.0127927 0.0129982 0.0131467 0.0131878 0.0131757 0.0131252 0.0130884 0.0131128 0.0131745 0.0133376 0.0134093 0.0135409 0.0132752 0.0130005 0.0124183 0.0121223 0.0118239 0.0115604 0.0113857 0.011218 0.0111249 0.0110276 0.0109838 0.0109825 0.0110359 0.0111375 0.0112988 0.01151 0.0117806 0.0120921 0.0124433 0.0127984 0.0131433 0.0134027 0.0135815 0.0135691 0.0134618 0.0132713 0.0130778 0.0129371 0.0128513 0.012888 0.0128942 0.0129887 0.0128416 0.0127234 0.0123765 0.0121506 0.0118874 0.0116412 0.0114405 0.0112543 0.0110974 0.0109773 0.010917 0.0109092 0.010964 0.0110735 0.0112509 0.0114871 0.0117966 0.0121647 0.0125915 0.0130404 0.0134935 0.0138239 0.0140462 0.0139623 0.0137491 0.0133864 0.0130336 0.0127313 0.0125232 0.0124737 0.0124578 0.0125746 0.0125383 0.012558 0.0123554 0.012204 0.0119555 0.0117126 0.0114756 0.011262 0.0110562 0.010911 0.010834 0.0108184 0.0108708 0.0109804 0.0111615 0.0114088 0.0117409 0.0121525 0.0126393 0.0131902 0.0137636 0.0142421 0.0146037 0.0144268 0.0140604 0.0135075 0.0129711 0.012499 0.012181 0.012076 0.0120755 0.0122609 0.012333 0.0125036 0.0123977 0.0123128 0.0120559 0.0117979 0.011512 0.0112602 0.0109675 0.010806 0.0107211 0.0107024 0.010751 0.0108534 0.0110265 0.0112741 0.0116145 0.0120612 0.0126008 0.0132796 0.0140785 0.014731 0.0152301 0.0149109 0.0143771 0.0135255 0.0128347 0.0122143 0.0118349 0.0117223 0.0117895 0.0120947 0.0122888 0.0126132 0.0125248 0.0124605 0.0121457 0.011843 0.0114958 0.0112035 0.0108901 0.0107071 0.0106111 0.0105849 0.0106223 0.0107089 0.0108628 0.0110995 0.0114126 0.0118299 0.0123051 0.0130775 0.0140104 0.0152439 0.0163706 0.0157111 0.0147034 0.0135515 0.0126352 0.01185 0.0114444 0.0113527 0.0115269 0.0119603 0.0122793 0.0128196 0.012766 0.0127262 0.0123259 0.0119487 0.0115167 0.0111667 0.0107105 0.0105379 0.0104559 0.0104394 0.0104772 0.0105594 0.010705 0.0109292 0.0111414 0.0113809 0.0115961 0.012474 0.0142544 0.0162223 0.0178233 0.0167714 0.0151947 0.0130364 0.012063 0.0113064 0.0110693 0.0111366 0.0115157 0.0121491 0.0126305 0.0133767 0.0130937 0.0129327 0.0123547 0.0118717 0.0113688 0.0109908 0.010578 0.0104016 0.010322 0.0103058 0.0103388 0.0104179 0.0105492 0.0106893 0.0105775 0.0102047 0.00974448 0.0106702 0.0126456 0.0177942 0.0227054 0.0198481 0.0159067 0.0128696 0.0110508 0.0100786 0.0103183 0.0108088 0.0115571 0.0122175 0.0127268 0.0138296 0.0135435 0.0133024 0.0125394 0.0119094 0.0113087 0.0108773 0.0102699 0.0101544 0.0101226 0.0101416 0.0102023 0.0103066 0.010406 0.0102992 0.00935374 0.00769454 0.00560837 0.00746496 0.0148804 0.0222982 0.0264416 0.023725 0.0191991 0.0110525 0.00881259 0.00815001 0.00915678 0.0106042 0.0120143 0.0130494 0.0138221 0.0153181 0.0138959 0.0131447 0.0121477 0.0114316 0.0108687 0.0104949 0.0101061 0.00999694 0.00997029 0.00998751 0.0100413 0.0101019 0.010041 0.00934676 0.0073133 0.00430625 0.00352431 0.0116645 0.0206106 0.0235167 0.0238521 0.0237544 0.0242932 0.0171728 0.00733224 0.00322563 0.00592848 0.00962082 0.0124558 0.0128656 0.0132372 0.0156392 0.0145173 0.0135011 0.012244 0.0113411 0.0107237 0.0103219 0.00981247 0.00976356 0.00977176 0.00980996 0.0098758 0.00991873 0.00976561 0.00875755 0.00668584 0.00489063 0.0069124 0.0160418 0.0195181 0.0191292 0.0195879 0.020084 0.0228749 0.022235 0.0112888 0.00328551 0.0042559 0.00873516 0.0124812 0.0147376 0.0168706 0.0198137 0.0131904 0.011112 0.0109293 0.0104592 0.0101762 0.00991919 0.00980679 0.0096956 0.00965991 0.00966061 0.0096867 0.00965815 0.00943261 0.00842085 0.00721277 0.00815223 0.0106868 0.0147937 0.0163585 0.0162517 0.0165574 0.0171025 0.0186841 0.0201698 0.0173651 0.00841876 0.00493294 0.0107188 0.0145943 0.0139468 0.0160369 0.0185862 0.0109202 0.0118463 0.0117669 0.0109731 0.0104538 0.0100124 0.00992897 0.00970497 0.00958579 0.00952398 0.00948422 0.0094038 0.00923762 0.00865154 0.00835538 0.00969827 0.0115406 0.0138782 0.0143208 0.0143582 0.0147204 0.0152602 0.0162874 0.0186499 0.018511 0.0111915 0.00568317 0.00934894 0.0120379 0.0153051 0.0168497 0.0152873 0.0112877 0.0163276 0.0145598 0.0122384 0.0110729 0.0103237 0.0100765 0.00976738 0.00957969 0.00948209 0.00941659 0.0094202 0.00957505 0.00995573 0.0104332 0.0107352 0.0107373 0.0117024 0.0122795 0.0126103 0.0128611 0.0130146 0.0132229 0.0137209 0.0143647 0.0132031 0.0100953 0.0111248 0.0119 0.0182661 0.0192521 0.0127769 0.010981 0.0201855 0.0166206 0.0130947 0.0115058 0.0105973 0.010394 0.00996066 0.00967251 0.00951261 0.00940521 0.00948972 0.00995146 0.011371 0.0124962 0.0112893 0.00924214 0.00975004 0.0106819 0.0111829 0.0113203 0.0112426 0.0110331 0.01033 0.0112525 0.0151204 0.0140026 0.0154859 0.0154609 0.0178003 0.020504 0.0111151 0.010792 0.0195742 0.0163762 0.0136888 0.0120668 0.0110631 0.0105949 0.0101223 0.00980182 0.00964748 0.0095904 0.0098758 0.0107629 0.0133815 0.0156398 0.0125268 0.00732262 0.00655789 0.00834078 0.00939379 0.00957418 0.00932382 0.00859188 0.00657774 0.00856284 0.0172041 0.0174285 0.0167403 0.0157868 0.0181625 0.0228687 0.0159326 0.0140533 0.0165755 0.0147779 0.0134191 0.0121674 0.0112719 0.0109918 0.0104131 0.0100216 0.00982215 0.00977118 0.0100612 0.0110342 0.0137467 0.0170898 0.0148437 0.00738589 0.00473171 0.00617517 0.00739904 0.00744302 0.00708561 0.00611808 0.00306133 0.0058554 0.0208601 0.0216704 0.0186967 0.017375 0.0174211 0.0195751 0.0170993 0.016206 0.0168191 0.0152554 0.0140084 0.0127627 0.011774 0.0112569 0.0106272 0.0102035 0.00997459 0.00992147 0.0101262 0.0108932 0.0129916 0.016536 0.0182254 0.0130019 0.00317579 0.00258619 0.00464502 0.00444295 0.00456958 0.00294692 0.00106179 0.0107194 0.0237732 0.0217096 0.0185016 0.0175691 0.0177263 0.0193267 0.0179426 0.0167695 0.0166171 0.0153332 0.0142436 0.0130832 0.0120783 0.011596 0.0108968 0.01043 0.0101667 0.0100979 0.0102235 0.0107203 0.0120607 0.0146623 0.0176961 0.0171087 0.00787327 0.00117619 0.000384361 -0.000995092 0.000657188 0.00386134 0.00661678 0.0169772 0.0217304 0.018915 0.0172965 0.017089 0.0174812 0.0187317 0.0182497 0.017116 0.0170342 0.0158744 0.014795 0.0135923 0.0124966 0.0117741 0.0110553 0.0105769 0.0102918 0.0101945 0.0102124 0.010436 0.0109399 0.0121756 0.0135653 0.0145803 0.0123598 0.00532022 0.000104102 -0.00328731 0.00145229 0.0088503 0.0124508 0.0160416 0.0174705 0.016231 0.0158994 0.016441 0.0173967 0.0194233 0.0193495 0.0164936 0.0170985 0.0160954 0.0150425 0.0138403 0.0127025 0.0119329 0.0112054 0.0107278 0.0104423 0.0103362 0.0103243 0.010437 0.0106049 0.0110607 0.0114847 0.0117829 0.0103611 0.0078318 0.00395867 0.00112046 0.00541486 0.00976253 0.0113762 0.0136048 0.0143928 0.0143698 0.014768 0.015695 0.0174227 0.020071 0.0198476 0.016154 0.0173396 0.0165264 0.0153516 0.0141024 0.0128933 0.0119249 0.0112397 0.0107976 0.0105333 0.0104214 0.0103796 0.0104174 0.0104235 0.0105207 0.0105076 0.0104532 0.00980639 0.00824011 0.00660839 0.00533523 0.00707108 0.00925151 0.0106193 0.0119705 0.0128121 0.0132199 0.0137364 0.0144752 0.0177333 0.0251757 0.0238494 0.0109986 0.0151985 0.0167078 0.0151069 0.0140646 0.0128442 0.0118727 0.0112569 0.0108589 0.0106292 0.0105228 0.010472 0.0104719 0.0104277 0.0103888 0.0102163 0.0099825 0.0094231 0.00863701 0.00784164 0.00714589 0.00823131 0.0093159 0.0101748 0.0111749 0.0118684 0.0121422 0.0121197 0.0136005 0.0190864 0.0268417 0.0252466 0.0104032 0.014535 0.0164437 0.0147747 0.0138258 0.0127352 0.0117522 0.0112185 0.0108775 0.0106932 0.0106015 0.0105477 0.010519 0.0104496 0.010356 0.0101626 0.00989639 0.00950414 0.00896311 0.00857981 0.00827707 0.00883014 0.00949652 0.0102568 0.0110555 0.0116909 0.0118908 0.0116214 0.0144458 0.0201181 0.0225244 0.0216408 0.0141149 0.0144926 0.0165592 0.0152474 0.0136311 0.0125913 0.0115999 0.0111706 0.0108922 0.0107578 0.0106877 0.0106422 0.0106036 0.0105309 0.0104275 0.010254 0.0100235 0.00973261 0.00939247 0.00918738 0.00903315 0.00942184 0.00988225 0.0105004 0.011174 0.0117817 0.0118264 0.0118451 0.0163227 0.0215945 0.021772 0.0205459 0.0127791 0.0131539 0.0143923 0.0149143 0.0133189 0.0123814 0.0114516 0.0111161 0.0109053 0.0108157 0.01077 0.0107381 0.0107023 0.0106394 0.0105474 0.0104129 0.0102355 0.0100424 0.00982418 0.00972622 0.00968376 0.00995952 0.0103326 0.0108818 0.0115081 0.0120646 0.0122431 0.0119818 0.0157115 0.0223127 0.0215575 0.019067 0.011655 0.0131987 0.0132548 0.0142841 0.0129361 0.0121206 0.0111894 0.0109933 0.0108885 0.0108548 0.0108441 0.0108342 0.0108152 0.0107753 0.0107131 0.0106269 0.0105152 0.010405 0.0102908 0.0102662 0.010291 0.0105303 0.0108777 0.011407 0.0121362 0.0129187 0.0139403 0.0144521 0.0176882 0.0243993 0.0219826 0.0166063 0.00421888 0.0111614 0.0131471 0.012991 0.0121147 0.0115862 0.0110424 0.0109451 0.0109097 0.0109087 0.0109208 0.0109294 0.0109313 0.0109207 0.0108971 0.010863 0.0108156 0.0107775 0.0107422 0.0107715 0.0108436 0.011056 0.0113712 0.0118562 0.0125517 0.0134134 0.0146148 0.0158906 0.0190133 0.0234916 0.0210314 0.0154972 0.00342315 0.0102326 0.0117244 0.0116275 0.0114591 0.0112221 0.0109761 0.0109306 0.0109381 0.0109578 0.0109882 0.0110158 0.0110433 0.0110674 0.0110892 0.0111104 0.0111287 0.0111568 0.0111899 0.0112623 0.0113639 0.0115529 0.0118211 0.0122213 0.0127884 0.0135142 0.0144271 0.0154335 0.0167535 0.0189593 0.0180574 0.0154256 0.00970786 0.010894 0.0112541 0.0112835 0.0112139 0.0110506 0.0109809 0.0109576 0.0109786 0.0110041 0.011044 0.011088 0.0111422 0.0112036 0.0112741 0.0113519 0.0114343 0.011524 0.0116159 0.0117237 0.0118441 0.0120074 0.012222 0.0125316 0.0129663 0.013553 0.0142777 0.015133 0.0159604 0.017019 0.0159044 0.0144921 0.0111643 0.0115134 0.0113413 0.0111921 0.0111305 0.0110068 0.0110416 0.0110062 0.0110169 0.0110378 0.0110823 0.0111416 0.0112235 0.0113237 0.0114451 0.0115809 0.0117281 0.0118785 0.0120261 0.0121648 0.0122948 0.0124237 0.0125695 0.0127647 0.0130339 0.0134146 0.0138612 0.0144172 0.0148162 0.0153348 0.0147035 0.0138997 0.0121741 0.0119352 0.0116026 0.0113461 0.0112269 0.0110827 
        </DataArray>
        <DataArray Name="vz" NumberOfComponents="1" type="Float32" format="ascii">
0 0 0 0 0 0 0 0 0 0 0 0 0 0 0 0 0 0 0 0 0 0 0 0 0 0 0 0 0 0 0 0 0 0 0 0 0 0 0 0 0 0 0 0 0 0 0 0 0 0 0 0 0 0 0 0 0 0 0 0 0 0 0 0 0 0 0 0 0 0 0 0 0 0 0 0 0 0 0 0 0 0 0 0 0 0 0 0 0 0 0 0 0 0 0 0 0 0 0 0 0 0 0 0 0 0 0 0 0 0 0 0 0 0 0 0 0 0 0 0 0 0 0 0 0 0 0 0 0 0 0 0 0 0 0 0 0 0 0 0 0 0 0 0 0 0 0 0 0 0 0 0 0 0 0 0 0 0 0 0 0 0 0 0 0 0 0 0 0 0 0 0 0 0 0 0 0 0 0 0 0 0 0 0 0 0 0 0 0 0 0 0 0 0 0 0 0 0 0 0 0 0 0 0 0 0 0 0 0 0 0 0 0 0 0 0 0 0 0 0 0 0 0 0 0 0 0 0 0 0 0 0 0 0 0 0 0 0 0 0 0 0 0 0 0 0 0 0 0 0 0 0 0 0 0 0 0 0 0 0 0 0 0 0 0 0 0 0 0 0 0 0 0 0 0 0 0 0 0 0 0 0 0 0 0 0 0 0 0 0 0 0 0 0 0 0 0 0 0 0 0 0 0 0 0 0 0 0 0 0 0 0 0 0 0 0 0 0 0 0 0 0 0 0 0 0 0 0 0 0 0 0 0 0 0 0 0 0 0 0 0 0 0 0 0 0 0 0 0 0 0 0 0 0 0 0 0 0 0 0 0 0 0 0 0 0 0 0 0 0 0 0 0 0 0 0 0 0 0 0 0 0 0 0 0 0 0 0 0 0 0 0 0 0 0 0 0 0 0 0 0 0 0 0 0 0 0 0 0 0 0 0 0 0 0 0 0 0 0 0 0 0 0 0 0 0 0 0 0 0 0 0 0 0 0 0 0 0 0 0 0 0 0 0 0 0 0 0 0 0 0 0 0 0 0 0 0 0 0 0 0 0 0 0 0 0 0 0 0 0 0 0 0 0 0 0 0 0 0 0 0 0 0 0 0 0 0 0 0 0 0 0 0 0 0 0 0 0 0 0 0 0 0 0 0 0 0 0 0 0 0 0 0 0 0 0 0 0 0 0 0 0 0 0 0 0 0 0 0 0 0 0 0 0 0 0 0 0 0 0 0 0 0 0 0 0 0 0 0 0 0 0 0 0 0 0 0 0 0 0 0 0 0 0 0 0 0 0 0 0 0 0 0 0 0 0 0 0 0 0 0 0 0 0 0 0 0 0 0 0 0 0 0 0 0 0 0 0 0 0 0 0 0 0 0 0 0 0 0 0 0 0 0 0 0 0 0 0 0 0 0 0 0 0 0 0 0 0 0 0 0 0 0 0 0 0 0 0 0 0 0 0 0 0 0 0 0 0 0 0 0 0 0 0 0 0 0 0 0 0 0 0 0 0 0 0 0 0 0 0 0 0 0 0 0 0 0 0 0 0 0 0 0 0 0 0 0 0 0 0 0 0 0 0 0 0 0 0 0 0 0 0 0 0 0 0 0 0 0 0 0 0 0 0 0 0 0 0 0 0 0 0 0 0 0 0 0 0 0 0 0 0 0 0 0 0 0 0 0 0 0 0 0 0 0 0 0 0 0 0 0 0 0 0 0 0 0 0 0 0 0 0 0 0 0 0 0 0 0 0 0 0 0 0 0 0 0 0 0 0 0 0 0 0 0 0 0 0 0 0 0 0 0 0 0 0 0 0 0 0 0 0 0 0 0 0 0 0 0 0 0 0 0 0 0 0 0 0 0 0 0 0 0 0 0 0 0 0 0 0 0 0 0 0 0 0 0 0 0 0 0 0 0 0 0 0 0 0 0 0 0 0 0 0 0 0 0 0 0 0 0 0 0 0 0 0 0 0 0 0 0 0 0 0 0 0 0 0 0 0 0 0 0 0 0 0 0 0 0 0 0 0 0 0 0 0 0 0 0 0 0 0 0 0 0 0 0 0 0 0 0 0 0 0 0 0 0 0 0 0 0 0 0 0 0 0 0 0 0 0 0 0 0 0 0 0 0 0 0 0 0 0 0 0 0 0 0 0 0 0 0 0 0 0 0 0 0 0 0 0 0 0 0 0 0 0 0 0 0 0 0 0 0 0 0 0 0 0 0 0 0 0 0 0 0 0 0 0 0 0 0 0 0 0 0 0 0 0 0 0 0 0 0 0 0 0 0 0 0 0 0 0 0 0 0 0 0 0 0 0 0 0 0 0 
        </DataArray>
        <DataArray Name="p" NumberOfComponents="1" type="Float32" format="ascii">