<?xml version="1.0"?>
<VTKFile type="StructuredGrid" version="0.1" byte_order="LittleEndian">
  <StructuredGrid WholeExtent="0 32 0 32 0 1">
    <Piece Extent="0 32 0 32 0 1">
      <PointData>
      </PointData>
      <CellData>
        <DataArray Name="vx" NumberOfComponents="1" type="Float32" format="ascii">
0.030213 0.0321275 0.0340278 0.0357222 0.0364676 0.036115 0.0332846 0.0277192 0.0200226 0.0120841 0.00613099 0.00280464 0.00211279 0.00295579 0.00483533 0.00712454 0.00950396 0.0117596 0.0137742 0.0154629 0.0167734 0.0179625 0.0189161 0.0198021 0.0206174 0.0214107 0.0222643 0.0231607 0.0242238 0.0253961 0.0268194 0.0283875 0.0309028 0.0335422 0.0364668 0.0394518 0.0414644 0.0422417 0.039227 0.0319113 0.0203661 0.00837379 0.000477181 -0.00334767 -0.00311521 -0.000862863 0.002399 0.00583562 0.00906236 0.0118397 0.014157 0.0158203 0.0169117 0.0179912 0.0188168 0.0196277 0.0203667 0.0211007 0.0219057 0.0227736 0.0238541 0.0250935 0.0266983 0.0285601 0.0311411 0.0345898 0.0388374 0.0438131 0.0480461 0.0518059 0.0497598 0.0390275 0.0212851 0.00243678 -0.00952595 -0.0131728 -0.0105327 -0.00576235 -0.00033608 0.00467964 0.00897277 0.0124005 0.0150474 0.0166128 0.0173455 0.0182082 0.0188344 0.0194999 0.0201146 0.0207349 0.0214369 0.0222127 0.023242 0.0244701 0.0261872 0.0282771 0.0309945 0.035384 0.0414789 0.049237 0.057035 0.06546 0.064874 0.0507712 0.0218936 -0.00892629 -0.0244853 -0.0276197 -0.0209289 -0.011781 -0.0031911 0.00402263 0.00963238 0.0137904 0.0169068 0.0180418 0.0178153 0.0184078 0.0188579 0.0193917 0.0198799 0.0203334 0.0208746 0.0214859 0.0223899 0.0235276 0.0252926 0.0275567 0.0292362 0.0340554 0.0418459 0.052561 0.064876 0.0834572 0.0926255 0.0756684 0.02418 -0.0328114 -0.0532563 -0.0475159 -0.0316083 -0.0164423 -0.00428602 0.00510874 0.0117716 0.0166809 0.0200427 0.0202846 0.0186758 0.018774 0.0189774 0.0192433 0.0195717 0.0197956 0.0201126 0.0204608 0.0211018 0.0219517 0.0235119 0.0255865 0.0264338 0.031372 0.0405887 0.052414 0.0654379 0.0853959 0.0981917 0.0767598 0.0276237 -0.0304949 -0.0581143 -0.0510485 -0.0326821 -0.0159252 -0.00238241 0.00846972 0.0157979 0.0213123 0.025518 0.0240241 0.0188985 0.0185259 0.0190155 0.0192004 0.019458 0.0193581 0.0193598 0.0193306 0.019583 0.020006 0.0211684 0.0228362 0.020125 0.0223241 0.028203 0.0277828 0.0273059 0.0243671 0.0178249 0.0115422 0.0200422 0.0307188 0.0256388 0.0155571 0.0149928 0.0129894 0.0126415 0.0177453 0.0223164 0.0271093 0.0298091 0.0267834 0.0213596 0.0212171 0.0204969 0.0193967 0.0192058 0.018698 0.0183252 0.0178296 0.0175116 0.0172008 0.0174719 0.0178757 0.0124188 0.010916 0.011253 -0.00106496 -0.00351302 -0.0174185 -0.0402488 -0.0266093 0.0165419 0.0682565 0.0861391 0.0731358 0.0621907 0.0521489 0.0358626 0.030746 0.0277151 0.0252268 0.0218287 0.0202086 0.0208471 0.023893 0.0238474 0.0211469 0.0199151 0.0185816 0.0175997 0.0165003 0.0154898 0.0143646 0.0134757 0.0123847 0.00290929 -0.00103279 -0.0046874 -0.0134907 -0.0222387 -0.0380759 -0.0497816 -0.0268915 0.0161982 0.0639528 0.091497 0.0888411 0.074118 0.0601823 0.0466573 0.0372075 0.0282662 0.0172125 0.00911774 0.0122385 0.0175521 0.0206958 0.0219094 0.0207638 0.0193175 0.0178889 0.016486 0.014892 0.0131205 0.0110351 0.00865125 0.00583569 -0.00529846 -0.0113212 -0.0187118 -0.0247213 -0.0397783 -0.0517898 -0.0459747 -0.0201875 0.0162753 0.0537225 0.0827375 0.0908042 0.0794809 0.0673827 0.0590663 0.0466073 0.0351414 0.0237238 0.0143469 0.0119224 0.0144089 0.0168854 0.0191993 0.0196529 0.0186856 0.0173582 0.0156925 0.0137571 0.0113756 0.0085886 0.00487547 0.000656571 -0.0156625 -0.0264414 -0.0468185 -0.0538223 -0.0618148 -0.0650395 -0.0450399 -0.0183103 0.0151638 0.048046 0.0755352 0.0935422 0.0897651 0.0782671 0.0703509 0.056719 0.0452463 0.0350171 0.0274067 0.0219448 0.0226382 0.0219217 0.0202872 0.020169 0.0186729 0.0171291 0.0150986 0.0127773 0.00978361 0.00619825 0.000976727 -0.00519901 -0.0198094 -0.0335754 -0.0594262 -0.0699356 -0.0743102 -0.07111 -0.0458344 -0.0181976 0.0149061 0.0471279 0.0743235 0.0959006 0.0958207 0.0886792 0.0806866 0.0638495 0.0521765 0.0439592 0.0383895 0.0346292 0.0336475 0.0278208 0.0230867 0.0212732 0.0192175 0.0173575 0.0151284 0.0126587 0.00944193 0.00562023 -0.000221494 -0.00718587 -0.0147815 -0.0252117 -0.0408012 -0.048834 -0.0607447 -0.0639569 -0.0452717 -0.0180123 0.0158599 0.0495741 0.0761039 0.0928929 0.0887146 0.0814328 0.076256 0.061948 0.0519763 0.0445323 0.0401922 0.0377862 0.0353844 0.0293005 0.0247144 0.0221917 0.0197399 0.0176492 0.015345 0.0128963 0.00983584 0.00625797 0.00111131 -0.00494847 -0.00555194 -0.0118745 -0.0193721 -0.0254861 -0.0369878 -0.0492752 -0.0472111 -0.0205668 0.017252 0.0563538 0.0830642 0.0875336 0.0745771 0.0633934 0.0588718 0.051156 0.0448681 0.0400864 0.037156 0.0347601 0.0328272 0.0289586 0.0250245 0.0225421 0.020188 0.0182116 0.0161234 0.0139745 0.0114292 0.00858456 0.00478934 0.000530032 0.00323701 -0.000974696 -0.00537213 -0.018087 -0.0255536 -0.0402995 -0.0516898 -0.0273973 0.019094 0.069434 0.093841 0.088604 0.0723321 0.059424 0.048519 0.0424677 0.0366767 0.0317808 0.0281553 0.0286461 0.032898 0.0322063 0.0271307 0.0235013 0.0205757 0.0185433 0.0166891 0.0149373 0.013061 0.0110304 0.00871023 0.00602358 0.0122629 0.0112058 0.0109657 -0.000227902 -0.00771941 -0.0219998 -0.0383704 -0.0269117 0.020128 0.0714617 0.0841849 0.0667792 0.0558003 0.0485102 0.034951 0.0310355 0.0281696 0.025353 0.0215931 0.0224563 0.0315591 0.0340605 0.0279486 0.0234892 0.0206199 0.0189962 0.017667 0.0164552 0.0153166 0.0142182 0.0132889 0.0123505 0.0206353 0.0239269 0.0301105 0.0336854 0.0318048 0.0332489 0.0283243 0.0191452 0.0236625 0.0263421 0.0180349 0.00597195 0.0125789 0.0135169 0.0148403 0.016385 0.00799788 -0.00895445 -0.0144691 0.00695777 0.0484302 0.0650943 0.0466415 0.0291793 0.0215605 0.0190526 0.0179949 0.0173654 0.0170332 0.0169041 0.0173235 0.0181475 0.0264023 0.0317993 0.0412613 0.05418 0.0683131 0.0884073 0.101543 0.0811132 0.0250745 -0.037997 -0.0598781 -0.0480332 -0.0276709 -0.0127339 -0.00353639 -0.00316273 -0.0217176 -0.0453521 -0.0364426 0.0073388 0.0591866 0.101452 0.0814363 0.0437418 0.025336 0.0201101 0.0187917 0.0185967 0.0188593 0.0194643 0.0207396 0.0226798 0.0292005 0.0344424 0.0423951 0.0533957 0.0659266 0.0816147 0.0890563 0.0722948 0.0205227 -0.0339149 -0.0494158 -0.0400106 -0.0240011 -0.00975749 0.00152547 0.00132806 0.0116426 0.041988 0.0688947 0.0680513 0.0388371 0.0499409 0.0623464 0.0395948 0.0250163 0.0204183 0.0191156 0.0192568 0.0199717 0.0211101 0.0228994 0.0253294 0.0306065 0.0352013 0.0413816 0.049081 0.0569576 0.0643177 0.0622788 0.0472139 0.0187521 -0.0102659 -0.0238943 -0.0248832 -0.0161911 -0.00624222 0.00766652 0.0341311 0.0739687 0.094261 0.0804955 0.0426793 -0.0310346 -0.080383 -0.056524 -0.0175074 0.0045792 0.0121414 0.0160979 0.018548 0.0203548 0.0222097 0.0243551 0.0269761 0.0306618 0.0342674 0.0385464 0.0433674 0.0474043 0.0502818 0.0477355 0.0372522 0.019297 0.000821144 -0.00860716 -0.00977596 -0.00493561 0.00357305 0.0172765 0.0526362 0.0947615 0.105829 0.0696963 0.00270123 -0.0733422 -0.118155 -0.0960251 -0.0393684 0.000410141 0.0123842 0.0170679 0.0195344 0.0212953 0.023143 0.0252021 0.0276138 0.0303072 0.0330665 0.0360129 0.0389016 0.0407698 0.0411967 0.037741 0.0302956 0.0189868 0.00768522 0.000889158 -0.00179317 -7.60474e-05 0.00299761 0.010528 0.0141948 0.0459055 0.085583 0.0579199 -0.0127654 -0.0852596 -0.107961 -0.0585578 -0.010816 0.00314653 0.0127332 0.0164025 0.0194119 0.0215145 0.0235524 0.0255868 0.0277838 0.0296754 0.0316544 0.0335496 0.0351654 0.0357845 0.0352107 0.0321884 0.0266272 0.0189223 0.0110994 0.00551472 0.00221356 0.000502168 -0.0015123 -0.00707519 -0.0232145 -0.0563775 -0.0636151 -0.0266038 0.00113287 0.0354088 0.0717967 0.0597221 0.0376111 0.0265648 0.023054 0.0219438 0.022384 0.0232487 0.0245323 0.0260504 0.0277627 0.0290049 0.0304315 0.0316368 0.0324349 0.0323677 0.0312902 0.028542 0.0243513 0.0189125 0.0134764 0.00928804 0.00651499 0.00499078 0.00402182 0.00114321 -0.00722089 -0.0353915 -0.0573677 -0.0329173 0.0156685 0.0673569 0.087539 0.0595715 0.0316688 0.0228418 0.0208487 0.0211 0.0221102 0.0232846 0.0246146 0.0260297 0.0274954 0.0284494 0.0294377 0.0301546 0.0304479 0.0300075 0.0287584 0.0263542 0.0229703 0.0188182 0.0146175 0.0110504 0.00835769 0.00642466 0.00522365 0.00389567 0.00245444 -0.00202503 -0.00769678 -0.00123265 0.0189037 0.0382435 0.0410762 0.031927 0.0253402 0.0231733 0.0226543 0.0228253 0.023369 0.0241404 0.0251012 0.0261912 0.0273219 0.028018 0.0287383 0.0291638 0.0291602 0.02853 0.0272192 0.0250587 0.0222256 0.0188802 0.0155159 0.012561 0.0102371 0.00853057 0.00749026 0.00657559 0.00605878 0.00462025 0.00321597 0.00831667 0.0186801 0.0281918 0.0302831 0.0262763 0.0233164 0.0224035 0.0223019 0.0227111 0.0233662 0.0242022 0.0251342 0.0261337 0.0271073 0.0277922 0.0283441 0.0286016 0.0284421 0.0277238 0.0264049 0.0243973 0.0218462 0.018908 0.0159427 0.0132589 0.0110777 0.00944484 0.00846608 0.00793709 0.00811401 0.00877285 0.00961919 0.0125985 0.0174135 0.021649 0.0231007 0.0225856 0.0223329 0.0224614 0.0227216 0.0231908 0.0237796 0.02452 0.0253303 0.0262033 0.0270364 0.0277522 0.0282554 0.0284654 0.0282613 0.0275247 0.0262106 0.0242636 0.0218139 0.0190191 0.016205 0.0136599 0.0115995 0.0100993 0.00922779 0.00883874 0.00903346 0.00969064 0.0107916 0.0132417 0.0167278 0.0198252 0.0213883 0.0216533 0.0218117 0.022118 0.0225114 0.0230921 0.0237541 0.0245428 0.0253653 0.0262307 0.0270357 0.0279234 0.0284701 0.0287316 0.0285787 0.0278785 0.0265742 0.024591 0.0220507 0.0191334 0.0161929 0.0135616 0.0114766 0.0100457 0.00930123 0.00914205 0.00958403 0.0105168 0.0118584 0.0137998 0.0161441 0.0182383 0.0197037 0.0205426 0.0212017 0.0218249 0.0224146 0.0230981 0.0238108 0.0246261 0.0254621 0.026345 0.0271721 0.0282881 0.0289884 0.0294172 0.0294266 0.0288334 0.0275537 0.0254428 0.0226186 0.0192845 0.0159183 0.0130023 0.0107933 0.00942128 0.00883934 0.00891201 0.00956159 0.0106246 0.0120435 0.0137989 0.0157864 0.0175681 0.0189618 0.0199345 0.0207253 0.0214635 0.0221577 0.0229275 0.0237141 0.0245993 0.0255053 0.0264747 0.0274047 0.0288255 0.02979 0.0305161 0.0308363 0.0304568 0.0292702 0.026947 0.0235847 0.0194696 0.0152951 0.0117961 0.00931724 0.00801427 0.00767326 0.00810738 0.0091088 0.0104612 0.0120572 0.0137672 0.0155154 0.0170573 0.0183846 0.0194323 0.0203352 0.0211661 0.0219429 0.0227729 0.0236154 0.0245642 0.0255504 0.0266387 0.0277261 0.0295088 0.0308762 0.03208 0.0329177 0.0329375 0.0319647 0.0293567 0.0251738 0.0196741 0.0140632 0.00967781 0.00682713 0.00568724 0.00577706 0.00676099 0.00827663 0.01004 0.0118988 0.013707 0.0153979 0.0168213 0.0180859 0.0191095 0.0200242 0.0208697 0.0216755 0.0225366 0.0234231 0.0244411 0.0255274 0.0267782 0.0280889 
        </DataArray>
        <DataArray Name="vy" NumberOfComponents="1" type="Float32" format="ascii">
0.00459245 0.00561363 0.00726094 0.0100004 0.0137984 0.018519 0.0240633 0.0284228 0.0308346 0.0291203 0.0251518 0.0199049 0.014989 0.0111169 0.00834705 0.00675295 0.00590382 0.00577207 0.00584384 0.00622081 0.00626831 0.00631177 0.00617478 0.00601974 0.00577862 0.00551688 0.00520402 0.00488596 0.00455465 0.004299 0.00412077 0.00421914 0.00236161 0.00321734 0.00482324 0.00802279 0.0129242 0.0195964 0.0286066 0.0361714 0.0400541 0.0374544 0.0303959 0.021792 0.0144429 0.00917492 0.00571945 0.0040001 0.00327462 0.0034643 0.00391504 0.00473752 0.00507393 0.00531526 0.0053246 0.00523544 0.00502293 0.00473277 0.00434717 0.00390531 0.00339916 0.00292339 0.0024729 0.00229097 -0.000331631 0.000170691 0.00151218 0.00519405 0.0113786 0.0209483 0.034899 0.0471721 0.0542457 0.0488569 0.0371732 0.0237544 0.0127013 0.00578182 0.00170224 0.000173667 -0.000109762 0.000730014 0.00183409 0.00348378 0.00409094 0.00441895 0.00452885 0.00446793 0.00429505 0.00398168 0.00352793 0.00295058 0.00224019 0.00148613 0.000673682 7.95604e-05 -0.00410371 -0.00463337 -0.00466619 -0.00158967 0.00459413 0.0172784 0.0411707 0.0644278 0.0767586 0.0685123 0.0455658 0.0225439 0.0066004 -0.0012004 -0.00495298 -0.00534424 -0.00455096 -0.002607 -0.000323643 0.00239336 0.00345416 0.00381455 0.00405815 0.00396669 0.00380383 0.00342473 0.00286476 0.00210043 0.00111298 -4.00305e-05 -0.00140636 -0.00271731 -0.00804541 -0.0100454 -0.0119793 -0.00991029 -0.00376849 0.0137551 0.051405 0.0906774 0.11324 0.0955047 0.0571534 0.0213227 -0.00243753 -0.0113732 -0.0139915 -0.0124198 -0.00989795 -0.00644094 -0.00243504 0.00250642 0.00381186 0.00341446 0.0035799 0.00339482 0.0033412 0.00296645 0.00236556 0.00145138 0.000210112 -0.00135663 -0.00331384 -0.00548532 -0.0128631 -0.0174942 -0.0237345 -0.0255863 -0.0272899 -0.0124176 0.0484367 0.130649 0.184388 0.145505 0.0585687 -0.000455991 -0.0259872 -0.0290938 -0.0270928 -0.021412 -0.0163203 -0.0107843 -0.00389485 0.00370929 0.0048792 0.0034435 0.00360097 0.00333857 0.00331339 0.00289951 0.00220936 0.00111184 -0.000421025 -0.00247722 -0.00516874 -0.00851216 -0.0164472 -0.0238513 -0.0325713 -0.0344971 -0.035379 -0.0207333 0.0613358 0.159773 0.216884 0.1792 0.0774714 -0.00442697 -0.0367768 -0.0410902 -0.0385529 -0.0303372 -0.0229411 -0.0159987 -0.00525117 0.00857165 0.00909014 0.00409685 0.00305608 0.00290325 0.00320854 0.00300261 0.00238739 0.00123882 -0.000443025 -0.00285626 -0.00608603 -0.0105471 -0.0175551 -0.025823 -0.0293685 -0.0261564 -0.0241167 -0.00121935 0.0670618 0.134001 0.167616 0.1457 0.0803836 0.0119352 -0.0237657 -0.0280005 -0.0321044 -0.030737 -0.0258706 -0.0174991 -0.0037615 0.0130557 0.0104135 0.00385348 0.00460477 0.00441798 0.0040394 0.00377102 0.00310083 0.00192 0.000163818 -0.00246647 -0.00598027 -0.0112074 -0.0149446 -0.0222095 -0.020366 -0.0190967 -0.0179079 0.0154788 0.0674458 0.101196 0.116566 0.105894 0.0709044 0.0191403 -0.0150585 -0.0119992 -0.0184387 -0.0218029 -0.0184341 -0.00934542 -0.00147638 0.00963038 0.00519563 0.00184957 0.00650139 0.0070091 0.00584846 0.00527976 0.00447957 0.00335614 0.00173527 -0.000760197 -0.00403754 -0.00927308 -0.0105817 -0.0181035 -0.0160962 -0.00891003 -0.00164026 0.0256109 0.0560198 0.0690451 0.0761727 0.070356 0.0561043 0.0281562 0.00136795 -0.00130761 -0.00890926 -0.0108751 -0.00555282 0.00128219 0.0020083 0.00532884 0.00204612 -0.00144495 0.0045336 0.00710385 0.00691864 0.00666982 0.00611436 0.0052722 0.00399943 0.00193654 -0.000814585 -0.00553517 -0.00293211 -0.00948098 -0.00722427 0.00186183 0.00899927 0.0237487 0.0359734 0.0394423 0.0422014 0.0394244 0.0348925 0.023594 0.0103015 0.00843431 0.00249886 0.000380261 0.00542185 0.0104598 0.0107048 0.00818799 0.000529807 -0.00322826 0.00378895 0.00729589 0.00805388 0.00823872 0.0080715 0.0076705 0.00697246 0.0057386 0.00402583 0.000822789 0.0109616 0.011814 0.0119286 0.00726978 0.00849957 0.00934394 0.00894133 0.00917051 0.00949319 0.00990475 0.0106923 0.013624 0.0160639 0.017172 0.0143411 0.0136368 0.0156605 0.0182742 0.0157106 0.0106885 0.0019837 0.000868964 0.006392 0.00898729 0.0099284 0.0103115 0.0104665 0.0105555 0.010584 0.0106064 0.0106471 0.0107648 0.0239095 0.0303408 0.0286178 0.0172638 0.00879151 -0.00422005 -0.0172046 -0.0209765 -0.0234415 -0.0199333 -0.0136825 0.00214467 0.0174226 0.0224765 0.0278421 0.0287313 0.0259624 0.0248147 0.0198911 0.0133371 0.00749325 0.00764227 0.0100831 0.0112896 0.011911 0.0123446 0.0127683 0.0133391 0.0140865 0.01533 0.0170454 0.020196 0.0315907 0.038273 0.0351364 0.0292317 0.0211455 -0.00581897 -0.0376683 -0.0517804 -0.0586565 -0.0503103 -0.0325122 0.000789093 0.0274303 0.0289329 0.0358541 0.037273 0.033522 0.0294939 0.0221062 0.0147468 0.00974212 0.0113409 0.0131148 0.0139429 0.0143553 0.0147189 0.0152235 0.0160543 0.0172576 0.0192678 0.0219857 0.0266217 0.0360487 0.0431564 0.0411086 0.0367785 0.0320055 0.00827107 -0.0452102 -0.0845987 -0.100704 -0.0853391 -0.044032 0.0115972 0.0430988 0.0374357 0.0398903 0.0407955 0.0369619 0.0324864 0.0262353 0.018624 0.0141929 0.0163292 0.0168966 0.0165486 0.0163468 0.0164827 0.0170118 0.0180062 0.01949 0.0218965 0.0251166 0.0302876 0.0387225 0.0470882 0.0522576 0.0487984 0.0406426 0.0202555 -0.0511929 -0.121814 -0.157002 -0.124978 -0.0518883 0.0209797 0.054108 0.0526071 0.0539502 0.0506829 0.0449047 0.0370389 0.0239243 0.0083461 0.00437794 0.0160936 0.0209667 0.0201126 0.0189185 0.0184991 0.0187812 0.0196742 0.0211789 0.0236324 0.02703 0.032176 0.037204 0.0447871 0.0535696 0.0566658 0.0548672 0.0379345 -0.0421955 -0.145329 -0.204494 -0.15209 -0.0405938 0.0397504 0.0614402 0.0597518 0.0555593 0.0476906 0.0424215 0.0396973 0.0321881 0.0113906 0.00468669 0.0219918 0.028529 0.0252288 0.0213474 0.0198663 0.0197026 0.0204082 0.0217412 0.0239313 0.0269794 0.03137 0.0329284 0.0373841 0.0426885 0.0446094 0.0418949 0.0249688 -0.0304851 -0.111323 -0.161363 -0.113327 -0.0248866 0.028261 0.0468875 0.0501775 0.0511195 0.0585356 0.0707774 0.0576428 0.0037424 -0.055876 -0.0573179 0.0168129 0.056227 0.0437104 0.0274907 0.0213872 0.0200064 0.020433 0.0215489 0.0233289 0.02575 0.0289058 0.0280897 0.0299868 0.0314603 0.0293393 0.0219494 0.00257506 -0.0344666 -0.0712286 -0.0894937 -0.0696369 -0.0304889 0.00562194 0.0261802 0.0359446 0.045753 0.0714944 0.0810369 0.0509804 -0.0190243 -0.0846772 -0.0928466 -0.00364831 0.0881749 0.0842908 0.046808 0.0280392 0.0219133 0.0207497 0.0210433 0.0221548 0.0237841 0.0257722 0.0237123 0.0240518 0.0235772 0.0202391 0.0132746 0.000331728 -0.0216046 -0.0442434 -0.0560438 -0.0442595 -0.0195255 0.00152917 0.0152651 0.0233976 0.0324939 0.0448404 0.0306395 0.00942536 -0.00985652 -0.0239375 -0.028994 -0.00185331 0.0634969 0.0758749 0.0428552 0.025645 0.0198118 0.0189374 0.019355 0.0202613 0.0214175 0.0225748 0.0199103 0.0193193 0.0177741 0.0139535 0.00757665 -0.00228022 -0.0157044 -0.0270837 -0.0327545 -0.0264748 -0.0143381 -0.00120864 0.00866978 0.0133702 0.0136824 0.00228344 0.0269576 0.0368143 0.0265702 0.0146418 0.025276 0.0292037 0.0336479 0.0245462 0.0193929 0.0176543 0.0168614 0.0171523 0.0177317 0.0183816 0.019101 0.0196194 0.0169727 0.0160796 0.0143636 0.0111002 0.00618605 -0.00044925 -0.00885157 -0.0160424 -0.0195127 -0.0163147 -0.00918085 -0.00218862 0.00229589 0.000758444 -0.0109865 -0.0413775 -0.0289169 0.0369139 0.0967372 0.116224 0.0944295 0.0170189 -0.0310995 -0.0274071 -0.00349393 0.00773832 0.0122604 0.0142233 0.0154316 0.0162153 0.016823 0.0170636 0.0146767 0.0136877 0.0120392 0.0093123 0.00557134 0.000919749 -0.00432856 -0.00830926 -0.0103044 -0.00837054 -0.00451941 2.54654e-05 0.00351551 0.00350147 -0.00258186 -0.0275135 -0.0427542 0.0348166 0.117501 0.146447 0.114565 0.0106242 -0.0560018 -0.0332255 -0.00465838 0.00631322 0.0109295 0.0127504 0.0139004 0.0145468 0.0149654 0.0149907 0.0130239 0.0121566 0.0108072 0.008765 0.00609242 0.00299616 -0.000354391 -0.00284578 -0.0040226 -0.0029495 -0.000514196 0.002575 0.00553605 0.00795254 0.00942797 0.0077388 0.0042848 0.0150038 0.0448738 0.0594853 0.0390112 0.00215019 -0.00536829 0.00211449 0.0086096 0.0107193 0.0118164 0.0123449 0.0128976 0.0132419 0.0134653 0.0133823 0.0117733 0.0110931 0.0100795 0.00862085 0.00680487 0.00478474 0.00273428 0.00129633 0.000603737 0.00126507 0.00264506 0.00455075 0.00637416 0.00802299 0.00921854 0.0101753 0.010444 0.0218469 0.0369704 0.0408134 0.0313786 0.0117212 0.00291956 0.00513271 0.00777463 0.00923708 0.0103581 0.0110533 0.0116404 0.0119753 0.0121614 0.0120801 0.0108745 0.0104297 0.0097808 0.00887735 0.00777531 0.0065946 0.00542225 0.0046369 0.00429635 0.00472573 0.00561865 0.00693333 0.00833719 0.00994752 0.0114947 0.0134039 0.0145678 0.0173463 0.0222826 0.0232891 0.0191778 0.0121524 0.00995394 0.0100342 0.010255 0.0103063 0.0105214 0.0106965 0.0109318 0.0110751 0.0111603 0.0110869 0.0101565 0.00996464 0.00967348 0.00926643 0.00877464 0.00826146 0.0077663 0.00746609 0.00735446 0.00760538 0.00804399 0.00870735 0.00941004 0.0102822 0.011146 0.0124847 0.0137753 0.016507 0.0197753 0.0200636 0.017628 0.012895 0.0103258 0.00954182 0.0093657 0.00940472 0.00960683 0.0097917 0.00999661 0.0101333 0.0102282 0.0102305 0.00954938 0.00961335 0.00967535 0.0097433 0.00981195 0.00989797 0.00998136 0.0100916 0.0101857 0.0103167 0.0104349 0.0106194 0.0108333 0.0112219 0.0116707 0.0124308 0.013133 0.0141113 0.0152324 0.0151011 0.0139342 0.0119056 0.0106559 0.00996517 0.00956027 0.00933011 0.00925177 0.00923526 0.00928216 0.00934069 0.00941371 0.00948226 0.00894086 0.00926127 0.00967399 0.0102129 0.0108394 0.0115215 0.0121827 0.0127012 0.0129878 0.0129669 0.0127004 0.0123098 0.0118939 0.0116332 0.0115058 0.0117091 0.0120409 0.0126521 0.0132952 0.013174 0.0123478 0.0109621 0.00991028 0.00924412 0.00882298 0.00858867 0.00847083 0.00842464 0.0084316 0.00848131 0.00857186 0.00872538 0.00824019 0.00880148 0.00956032 0.0105856 0.011818 0.0131634 0.0145141 0.0155206 0.0160491 0.0158571 0.0151499 0.0140916 0.0129902 0.0120623 0.0113629 0.0110306 0.0108921 0.0109799 0.0110946 0.0109379 0.0104637 0.00976825 0.00913561 0.00865506 0.00826571 0.00799394 0.00779339 0.00766779 0.00759782 0.00760566 0.00768614 0.00789932 0.00736105 0.00814546 0.00924957 0.0108078 0.012741 0.0149106 0.0171517 0.0188283 0.01971 0.0192189 0.0178537 0.0158935 0.0138879 0.0121625 0.0108251 0.0100125 0.0095403 0.00942779 0.00939564 0.00933262 0.00900626 0.00858867 0.00812797 0.00776368 0.00742653 0.00716984 0.00694481 0.00677899 0.00665422 0.00662089 0.0066765 0.00692457 0.00615751 0.00709461 0.00849618 0.0106053 0.0133824 0.0166121 0.0202243 0.0229589 0.0243699 0.0235124 0.0211539 0.0178445 0.0146459 0.0119484 0.00992789 0.00867718 0.00794314 0.00771878 0.00764508 0.00772407 0.00759301 0.00744103 0.00717054 0.00692482 0.00663705 0.00637567 0.00610469 0.00586678 0.0056499 0.00552625 0.00549568 0.00570696 
        </DataArray>
        <DataArray Name="vz" NumberOfComponents="1" type="Float32" format="ascii">
0 0 0 0 0 0 0 0 0 0 0 0 0 0 0 0 0 0 0 0 0 0 0 0 0 0 0 0 0 0 0 0 0 0 0 0 0 0 0 0 0 0 0 0 0 0 0 0 0 0 0 0 0 0 0 0 0 0 0 0 0 0 0 0 0 0 0 0 0 0 0 0 0 0 0 0 0 0 0 0 0 0 0 0 0 0 0 0 0 0 0 0 0 0 0 0 0 0 0 0 0 0 0 0 0 0 0 0 0 0 0 0 0 0 0 0 0 0 0 0 0 0 0 0 0 0 0 0 0 0 0 0 0 0 0 0 0 0 0 0 0 0 0 0 0 0 0 0 0 0 0 0 0 0 0 0 0 0 0 0 0 0 0 0 0 0 0 0 0 0 0 0 0 0 0 0 0 0 0 0 0 0 0 0 0 0 0 0 0 0 0 0 0 0 0 0 0 0 0 0 0 0 0 0 0 0 0 0 0 0 0 0 0 0 0 0 0 0 0 0 0 0 0 0 0 0 0 0 0 0 0 0 0 0 0 0 0 0 0 0 0 0 0 0 0 0 0 0 0 0 0 0 0 0 0 0 0 0 0 0 0 0 0 0 0 0 0 0 0 0 0 0 0 0 0 0 0 0 0 0 0 0 0 0 0 0 0 0 0 0 0 0 0 0 0 0 0 0 0 0 0 0 0 0 0 0 0 0 0 0 0 0 0 0 0 0 0 0 0 0 0 0 0 0 0 0 0 0 0 0 0 0 0 0 0 0 0 0 0 0 0 0 0 0 0 0 0 0 0 0 0 0 0 0 0 0 0 0 0 0 0 0 0 0 0 0 0 0 0 0 0 0 0 0 0 0 0 0 0 0 0 0 0 0 0 0 0 0 0 0 0 0 0 0 0 0 0 0 0 0 0 0 0 0 0 0 0 0 0 0 0 0 0 0 0 0 0 0 0 0 0 0 0 0 0 0 0 0 0 0 0 0 0 0 0 0 0 0 0 0 0 0 0 0 0 0 0 0 0 0 0 0 0 0 0 0 0 0 0 0 0 0 0 0 0 0 0 0 0 0 0 0 0 0 0 0 0 0 0 0 0 0 0 0 0 0 0 0 0 0 0 0 0 0 0 0 0 0 0 0 0 0 0 0 0 0 0 0 0 0 0 0 0 0 0 0 0 0 0 0 0 0 0 0 0 0 0 0 0 0 0 0 0 0 0 0 0 0 0 0 0 0 0 0 0 0 0 0 0 0 0 0 0 0 0 0 0 0 0 0 0 0 0 0 0 0 0 0 0 0 0 0 0 0 0 0 0 0 0 0 0 0 0 0 0 0 0 0 0 0 0 0 0 0 0 0 0 0 0 0 0 0 0 0 0 0 0 0 0 0 0 0 0 0 0 0 0 0 0 0 0 0 0 0 0 0 0 0 0 0 0 0 0 0 0 0 0 0 0 0 0 0 0 0 0 0 0 0 0 0 0 0 0 0 0 0 0 0 0 0 0 0 0 0 0 0 0 0 0 0 0 0 0 0 0 0 0 0 0 0 0 0 0 0 0 0 0 0 0 0 0 0 0 0 0 0 0 0 0 0 0 0 0 0 0 0 0 0 0 0 0 0 0 0 0 0 0 0 0 0 0 0 0 0 0 0 0 0 0 0 0 0 0 0 0 0 0 0 0 0 0 0 0 0 0 0 0 0 0 0 0 0 0 0 0 0 0 0 0 0 0 0 0 0 0 0 0 0 0 0 0 0 0 0 0 0 0 0 0 0 0 0 0 0 0 0 0 0 0 0 0 0 0 0 0 0 0 0 0 0 0 0 0 0 0 0 0 0 0 0 0 0 0 0 0 0 0 0 0 0 0 0 0 0 0 0 0 0 0 0 0 0 0 0 0 0 0 0 0 0 0 0 0 0 0 0 0 0 0 0 0 0 0 0 0 0 0 0 0 0 0 0 0 0 0 0 0 0 0 0 0 0 0 0 0 0 0 0 0 0 0 0 0 0 0 0 0 0 0 0 0 0 0 0 0 0 0 0 0 0 0 0 0 0 0 0 0 0 0 0 0 0 0 0 0 0 0 0 0 0 0 0 0 0 0 0 0 0 0 0 0 0 0 0 0 0 0 0 0 0 0 0 0 0 0 0 0 0 0 0 0 0 0 0 0 0 0 0 0 0 0 0 0 0 0 0 0 0 0 0 0 0 0 0 0 0 0 0 0 0 0 0 0 0 0 0 0 0 0 0 0 0 0 0 0 0 0 0 0 0 0 0 0 0 0 0 0 0 0 0 0 0 0 0 0 0 0 0 0 0 0 0 0 0 
        </DataArray>
        <DataArray Name="p" NumberOfComponents="1" type="Float32" format="ascii">