<?xml version="1.0"?>
<VTKFile type="StructuredGrid" version="0.1" byte_order="LittleEndian">
  <StructuredGrid WholeExtent="0 32 0 32 0 1">
    <Piece Extent="0 32 0 32 0 1">
      <PointData>
      </PointData>
      <CellData>
        <DataArray Name="vx" NumberOfComponents="1" type="Float32" format="ascii">
0.0209209 0.0209162 0.0209197 0.0209485 0.0209727 0.0209942 0.0209905 0.020954 0.0208656 0.0207167 0.0204896 0.0201858 0.0197951 0.019345 0.0188513 0.0183728 0.0179543 0.0176559 0.0174997 0.0175637 0.0177945 0.0183367 0.0189661 0.0199636 0.0208437 0.0215274 0.0215233 0.0211858 0.0212506 0.0210464 0.0210264 0.0209551 0.0207649 0.0207831 0.020814 0.020869 0.0209222 0.0209736 0.0210038 0.0210052 0.0209597 0.0208567 0.0206744 0.0204111 0.0200458 0.0196069 0.0191032 0.0186091 0.0181877 0.0178935 0.017759 0.0178278 0.0180679 0.0185411 0.0191034 0.0198536 0.0205073 0.0209944 0.0211096 0.0209807 0.0210033 0.0208712 0.020832 0.0207828 0.020586 0.0206288 0.0206858 0.0207654 0.0208462 0.0209283 0.0209971 0.0210457 0.0210572 0.0210185 0.0208991 0.0206935 0.0203567 0.0199202 0.0193816 0.0188461 0.0184002 0.0180957 0.0179808 0.0180552 0.018309 0.0187279 0.0192243 0.0197884 0.020281 0.0206311 0.0207636 0.020728 0.0207231 0.0206407 0.020603 0.0205814 0.0203779 0.0204441 0.0205242 0.0206258 0.0207316 0.0208442 0.0209548 0.0210585 0.0211409 0.0211857 0.0211554 0.0210376 0.0207528 0.0203302 0.0197153 0.0190838 0.0185846 0.0182509 0.0181474 0.0182294 0.0185093 0.0189027 0.0193641 0.019813 0.0201966 0.020438 0.0205254 0.020498 0.0204537 0.0203906 0.0203515 0.0203527 0.0201543 0.0202405 0.0203374 0.0204551 0.0205806 0.0207211 0.0208758 0.0210407 0.0212065 0.0213575 0.0214465 0.0214662 0.0212518 0.0208228 0.0200741 0.0193044 0.0187193 0.018359 0.0182986 0.0183959 0.0187214 0.0191021 0.0195411 0.0198915 0.0201775 0.0203065 0.0203138 0.0202612 0.0201741 0.0201233 0.020086 0.0201107 0.0198988 0.0200035 0.0201133 0.0202429 0.0203833 0.0205457 0.0207384 0.0209547 0.0212012 0.0214703 0.0217427 0.0219945 0.0219768 0.0216351 0.0205747 0.019447 0.0187298 0.0183493 0.0183529 0.0185017 0.0189089 0.0192907 0.0197165 0.0199753 0.0201877 0.0202193 0.0201331 0.0200306 0.0198835 0.0198334 0.0197923 0.0198391 0.0196456 0.0197696 0.0198877 0.0200221 0.0201687 0.0203407 0.0205556 0.0208014 0.021125 0.0215761 0.0221822 0.022971 0.0232985 0.0228728 0.0211895 0.0194698 0.018383 0.0180234 0.018312 0.0185662 0.0191337 0.0195078 0.0198977 0.0200085 0.0201073 0.0199867 0.019783 0.0196644 0.0194897 0.0194862 0.0194712 0.0195619 0.0193637 0.0195105 0.0196381 0.0197762 0.0199231 0.0200886 0.0203011 0.0205535 0.0209945 0.0217938 0.0231542 0.0248839 0.0261078 0.0259758 0.0226344 0.0191045 0.017356 0.016867 0.0174358 0.0181116 0.0191443 0.0196082 0.0199469 0.0198495 0.0198881 0.0197027 0.0194151 0.0192798 0.0190588 0.0191038 0.0191131 0.0192532 0.0191706 0.0193328 0.0194599 0.0195901 0.0197246 0.019864 0.0200612 0.0203321 0.0210359 0.0225759 0.0252648 0.0290333 0.0308414 0.0289702 0.0236727 0.01902 0.0152758 0.0142469 0.0157971 0.0168796 0.0188172 0.0195706 0.0199204 0.0194996 0.0193724 0.0189555 0.0185643 0.0186397 0.0184992 0.0187225 0.0188133 0.01903 0.0189743 0.0191456 0.0192735 0.0193993 0.0195225 0.0196466 0.0198557 0.020262 0.0214199 0.0238621 0.0276351 0.0304878 0.0286793 0.0237082 0.021005 0.0198541 0.015037 0.0115964 0.0114126 0.0136354 0.0176548 0.0191687 0.0195277 0.0186946 0.0186744 0.0184673 0.0182087 0.0184006 0.018168 0.0184733 0.0185688 0.0188226 0.0190436 0.0191633 0.0192532 0.0193489 0.019449 0.0195439 0.0197481 0.0201048 0.0212266 0.0227927 0.0241928 0.0201821 0.0145219 0.0144014 0.0184325 0.0215549 0.0227212 0.0175921 0.0104176 0.0121726 0.0163815 0.0187716 0.0195006 0.0182297 0.0175715 0.0165619 0.0167462 0.0182711 0.0182409 0.018717 0.0187533 0.0189537 0.0190511 0.0191143 0.0191711 0.0192432 0.0193112 0.0193888 0.0195038 0.019757 0.0200145 0.0200903 0.016877 0.0121969 0.0118028 0.015126 0.0200474 0.0241487 0.0282282 0.0295453 0.0258788 0.0212145 0.0199512 0.0206507 0.0196993 0.0175878 0.0168021 0.0159344 0.018426 0.0205377 0.0192249 0.0193274 0.0190229 0.0190574 0.0194472 0.0193322 0.0192888 0.019298 0.0193223 0.0193659 0.0193512 0.0191324 0.0181907 0.0152405 0.0120275 0.0119534 0.014509 0.0175843 0.0209798 0.024111 0.0273564 0.0311331 0.0311976 0.0256291 0.0223471 0.0228498 0.023464 0.0252896 0.0245564 0.0246531 0.0293521 0.0277786 0.022939 0.021313 0.0201899 0.0197207 0.0194294 0.0192856 0.0192167 0.0191927 0.0191628 0.0191452 0.0189249 0.0183496 0.0164282 0.0139416 0.012987 0.0141218 0.0166319 0.0191367 0.0218297 0.0244338 0.0275634 0.0311377 0.0348808 0.0340352 0.0300429 0.0280305 0.0280288 0.0284281 0.0246776 0.0265665 0.0298493 0.0264373 0.0230046 0.021024 0.0201701 0.0196866 0.0196293 0.0194174 0.0192825 0.0191906 0.0190965 0.0190065 0.0186826 0.0178681 0.0158039 0.0136744 0.0134661 0.0151681 0.0176 0.0197121 0.0220245 0.0243764 0.0272793 0.0305884 0.0357433 0.0364018 0.0313657 0.0280648 0.0238588 0.0220837 0.0186961 0.0207886 0.0208107 0.0176318 0.0203871 0.0202671 0.0201911 0.0198722 0.0195627 0.0193499 0.0192017 0.0190705 0.0189137 0.0187258 0.0182548 0.0172836 0.0150253 0.0124773 0.0123337 0.0146475 0.0174103 0.0196394 0.0219586 0.0243528 0.027245 0.0306827 0.0361576 0.0380949 0.0333043 0.0293438 0.0255923 0.025892 0.0236985 0.019217 0.0171369 0.017213 0.0196463 0.0198444 0.0200343 0.0197416 0.0197555 0.0194606 0.0192417 0.019035 0.0188071 0.0185212 0.0180238 0.0171633 0.0153732 0.0123649 0.0110545 0.0131417 0.0162939 0.0190118 0.0216471 0.0244401 0.0275005 0.0313395 0.0372879 0.0386612 0.0328289 0.028423 0.0266944 0.026093 0.0278813 0.0250343 0.0189133 0.0192303 0.0206 0.0205299 0.0204557 0.0200437 0.0197791 0.0194863 0.0192729 0.0190721 0.0188928 0.0186843 0.0185054 0.0183443 0.0182591 0.0165318 0.0119029 0.011062 0.0150006 0.0182972 0.0214711 0.0248903 0.0277539 0.0324087 0.0348972 0.0316608 0.0276092 0.0256163 0.0247455 0.0235809 0.0255283 0.025278 0.0215851 0.0213037 0.0212362 0.0208447 0.0205273 0.0200934 0.0198696 0.0195761 0.0193539 0.019145 0.0189678 0.0187999 0.0187288 0.0190697 0.0199144 0.0208456 0.015965 0.0107177 0.0130245 0.0172928 0.0216479 0.0264371 0.0284307 0.0308072 0.0256934 0.0202899 0.0224121 0.0228127 0.0236625 0.0232052 0.0239703 0.023736 0.0220814 0.0219329 0.0215115 0.0210914 0.0206362 0.0202085 0.019905 0.0196645 0.0194874 0.0193229 0.0192221 0.0191474 0.0192932 0.0198528 0.0216717 0.0243074 0.02677 0.0220519 0.0174122 0.0195973 0.0226874 0.0256347 0.0247858 0.0187474 0.0122419 0.0141528 0.0192063 0.0212586 0.0227062 0.0227307 0.0232294 0.0227751 0.0221091 0.0221946 0.0214666 0.0210815 0.0205627 0.0202038 0.0199186 0.0197541 0.0196263 0.0194955 0.0194189 0.0193708 0.0195017 0.0199731 0.021464 0.0242656 0.0286547 0.0307352 0.0272325 0.0232295 0.0220735 0.0197858 0.0166082 0.0124842 0.0107185 0.0149165 0.0188482 0.0207421 0.0221468 0.0222004 0.0222579 0.0215218 0.0214855 0.0218542 0.0210424 0.0208158 0.0203571 0.0201295 0.0199635 0.0198845 0.0198218 0.0197363 0.0196921 0.0196643 0.0197559 0.0200132 0.0207855 0.0223305 0.0246437 0.0272544 0.0263216 0.0222984 0.0180721 0.0140228 0.0125106 0.0123976 0.0133226 0.0163596 0.0189277 0.020439 0.0218135 0.0215441 0.020826 0.0185773 0.0194402 0.0215377 0.0205282 0.0204786 0.0201507 0.0200559 0.0199959 0.0200092 0.0200115 0.0199668 0.0199423 0.0199248 0.0199873 0.0201368 0.0205263 0.0212589 0.0223398 0.0234885 0.0230883 0.0212047 0.0179608 0.0150101 0.014504 0.0146774 0.015479 0.0172149 0.0186818 0.0199566 0.0216293 0.0201843 0.0186778 0.0165795 0.0174875 0.020054 0.0194822 0.0198403 0.0198354 0.0199408 0.0200862 0.0201696 0.0202337 0.0202216 0.0202101 0.0201931 0.020222 0.020295 0.0204507 0.0207376 0.0210607 0.0214717 0.0211064 0.0200032 0.0182417 0.0165331 0.0160385 0.0159945 0.0163878 0.0172561 0.0183167 0.0199402 0.0221276 0.0221167 0.0203098 0.019369 0.0180117 0.0186189 0.0198497 0.019299 0.0196939 0.0198504 0.0202744 0.0203727 0.0204473 0.0204499 0.0204394 0.0204162 0.0204143 0.0204336 0.0204759 0.0205476 0.0205612 0.0205358 0.0200773 0.0193142 0.0181757 0.0170749 0.0165994 0.0162716 0.0162159 0.0164109 0.0166501 0.0175938 0.0175843 0.0160279 0.0156416 0.0180462 0.0178355 0.018511 0.0203988 0.0197275 0.0199458 0.0200508 0.0202017 0.0204726 0.0206047 0.0206412 0.020636 0.0206068 0.0205749 0.0205448 0.0205019 0.0204475 0.0202998 0.0200886 0.0196017 0.0189354 0.0180848 0.0172304 0.0166655 0.0161692 0.0158557 0.0155085 0.0152369 0.0144211 0.0135333 0.0125537 0.0123774 0.0130835 0.0142506 0.0121014 0.0131209 0.0177579 0.0187155 0.0197328 0.020549 0.0207188 0.0207928 0.0208113 0.0207901 0.0207505 0.0206945 0.0206267 0.0205271 0.0203929 0.0201637 0.0198554 0.0193567 0.0187441 0.0180088 0.0172558 0.016655 0.0160429 0.0155574 0.0147967 0.0140931 0.0118013 0.0103195 0.00934941 0.00909385 0.0100888 0.0150681 0.018753 0.0180003 0.0191792 0.0197796 0.0202623 0.0206703 0.0208409 0.0209029 0.020922 0.0208965 0.0208533 0.0207838 0.0206923 0.0205568 0.0203743 0.0201009 0.0197482 0.0192555 0.0186739 0.0180085 0.0173215 0.0167042 0.016084 0.0155252 0.0147789 0.0138991 0.0119501 0.00997468 0.00816727 0.00812177 0.00923511 0.0154799 0.020658 0.019455 0.0194881 0.0199577 0.0204114 0.0208634 0.0209713 0.0209955 0.0209986 0.0209653 0.0209208 0.0208469 0.020745 0.020593 0.0203867 0.0200953 0.0197271 0.0192499 0.0187029 0.0180947 0.0174773 0.016912 0.016398 0.0159821 0.0156595 0.0153517 0.0152683 0.0148237 0.0175962 0.0197867 0.0207769 0.0179459 0.0160681 0.019018 0.0193373 0.0203138 0.0206344 0.0209918 0.0210363 0.0210327 0.0210291 0.0209989 0.0209612 0.0208931 0.0207933 0.0206403 0.0204292 0.0201371 0.0197706 0.0193128 0.0187947 0.0182282 0.01766 0.0171312 0.0166788 0.0163289 0.0161671 0.0161074 0.0165414 0.017015 0.0202908 0.0234361 0.025613 0.0220364 0.0186067 0.0205189 0.0203009 0.0207954 0.0208897 0.021059 0.0210582 0.0210371 0.021032 0.0210109 0.0209857 0.0209314 0.0208436 0.0207018 0.0204998 0.0202196 0.0198664 0.0194313 0.0189425 0.0184146 0.017896 0.0174227 0.0170525 0.0168033 0.016795 0.0169277 0.0175457 0.0181809 0.0201498 0.0221386 0.0237607 0.0225246 0.0207773 0.0212256 0.0208627 0.0210669 0.0210436 0.021017 0.021005 0.0209909 0.0209999 0.0209993 0.0209952 0.0209632 0.020897 0.0207769 0.0205957 0.0203371 0.0200047 0.019592 0.0191255 0.018621 0.0181297 0.0176884 0.0173588 0.0171583 0.0171949 0.017397 0.0180151 0.0187209 0.0201788 0.0214606 0.0224642 0.0220238 0.0211551 0.0213626 0.0210674 0.0211143 0.0210441 
        </DataArray>
        <DataArray Name="vy" NumberOfComponents="1" type="Float32" format="ascii">
0.010883 0.0108453 0.0108474 0.0108687 0.0109226 0.0110028 0.0111191 0.0112684 0.011454 0.0116687 0.0119077 0.0121547 0.0123988 0.012612 0.0127918 0.012914 0.0130136 0.0131077 0.013237 0.0134379 0.0136758 0.0139995 0.0141509 0.0143313 0.0136923 0.0131246 0.0118905 0.0118447 0.0113827 0.0112369 0.0110561 0.0109449 0.0109001 0.0108369 0.0108185 0.0108299 0.010885 0.0109793 0.011123 0.0113136 0.011555 0.011839 0.0121588 0.0124892 0.0128151 0.0130795 0.0132799 0.0133546 0.0133657 0.0133131 0.0132673 0.0132629 0.0132882 0.0134033 0.0134096 0.0134746 0.0130888 0.0127719 0.0120548 0.0118857 0.0115054 0.0113212 0.0111292 0.0109911 0.0108878 0.0108004 0.010762 0.0107634 0.0108178 0.0109221 0.0110869 0.0113117 0.0116015 0.0119515 0.0123532 0.0127789 0.0132055 0.0135492 0.0137978 0.0138226 0.0137372 0.013526 0.0133065 0.0131096 0.012964 0.0129281 0.0128553 0.0128702 0.0126225 0.0124565 0.0120224 0.0118668 0.011565 0.0113718 0.01117 0.0110084 0.0108477 0.0107358 0.0106779 0.0106693 0.0107203 0.0108289 0.0110054 0.0112548 0.0115837 0.0119976 0.0124882 0.0130284 0.0135963 0.0140476 0.0143637 0.0143222 0.0141296 0.0137186 0.0133224 0.0129284 0.0126333 0.0124833 0.0123752 0.0123998 0.0122797 0.0122455 0.0119947 0.0118764 0.011619 0.0114168 0.0111917 0.0110014 0.010799 0.0106605 0.0105815 0.0105592 0.0105992 0.0106998 0.0108701 0.0111244 0.0114702 0.0119326 0.0124989 0.0131745 0.0139151 0.0145763 0.0150691 0.0149393 0.0145982 0.0139497 0.0133469 0.0127314 0.012294 0.0120565 0.011945 0.0120179 0.0120073 0.0121071 0.0119845 0.0119241 0.011689 0.0114746 0.0112148 0.0109897 0.0107084 0.0105509 0.010458 0.0104256 0.0104523 0.0105362 0.0106857 0.0109289 0.0112692 0.0117575 0.0123869 0.0132092 0.0142562 0.015211 0.0159047 0.015632 0.0151136 0.01408 0.0133181 0.0124838 0.0119448 0.0116663 0.0115982 0.0117738 0.0118756 0.0121128 0.0120434 0.0120139 0.011751 0.0115024 0.0111931 0.0109312 0.0106377 0.0104559 0.0103444 0.010294 0.0102952 0.0103464 0.010455 0.0106611 0.010949 0.0113888 0.0119781 0.0129408 0.0142684 0.0159476 0.0173352 0.0167287 0.0157889 0.0142927 0.0132621 0.0121293 0.0115095 0.0112266 0.0112397 0.0115341 0.011738 0.0121522 0.0121574 0.0121846 0.0118806 0.0115841 0.0112096 0.0108991 0.0104852 0.0103055 0.0101975 0.0101445 0.0101304 0.010156 0.0102233 0.010367 0.0104924 0.0106801 0.010995 0.0120203 0.0143838 0.0173319 0.0193801 0.0183079 0.0167178 0.0138897 0.0129008 0.011592 0.0110581 0.0109289 0.0111153 0.0116252 0.0119001 0.0124781 0.012348 0.0123351 0.0119027 0.0115298 0.0110943 0.0107558 0.0103853 0.0101964 0.0100821 0.0100162 0.00998014 0.00997224 0.00998424 0.00997301 0.00972768 0.00924728 0.00895915 0.0100802 0.0130624 0.019291 0.0244476 0.0217042 0.0183497 0.0141488 0.012289 0.0102212 0.0100069 0.0103544 0.0109149 0.0115726 0.0118049 0.0126085 0.0125264 0.0125877 0.0120346 0.0115707 0.011058 0.0106751 0.0101584 0.0100104 0.00992829 0.00988031 0.00985103 0.009829 0.00974628 0.00938625 0.00821864 0.00632574 0.00449367 0.00614479 0.0143782 0.0248757 0.0295486 0.0264177 0.0221548 0.0121101 0.0106877 0.00841642 0.00856223 0.00996308 0.0112262 0.0124167 0.0124069 0.0133903 0.012585 0.012478 0.0117433 0.0112355 0.0107426 0.0103958 0.0100703 0.00991722 0.00983377 0.00977624 0.00973221 0.00964595 0.00938616 0.00842822 0.00627681 0.00308676 0.00260105 0.0096301 0.0197738 0.0266212 0.0278648 0.0271457 0.027011 0.0179507 0.0114692 0.0030219 0.00436056 0.00827804 0.0110714 0.0123993 0.0118401 0.0130407 0.0124542 0.0128525 0.0119088 0.0112736 0.0107062 0.0103142 0.00991175 0.0097887 0.00972722 0.00968206 0.00964726 0.0095308 0.00915808 0.00784682 0.00541994 0.00293905 0.00713212 0.0153178 0.0200738 0.0215115 0.0224908 0.0229208 0.025502 0.0237465 0.0156126 0.00278933 0.00247731 0.00737701 0.0118608 0.0152854 0.0137751 0.0143463 0.010563 0.0111897 0.0110539 0.0107524 0.0104119 0.0100918 0.0100299 0.00982198 0.00971545 0.00964516 0.0095958 0.00946319 0.00909557 0.00796277 0.00649059 0.0062816 0.0104697 0.0146452 0.0170728 0.0179255 0.0186099 0.0192693 0.0211152 0.0219142 0.019513 0.00930072 0.00385482 0.00844053 0.0128764 0.0153049 0.0129887 0.0120393 0.00728762 0.0130869 0.0128908 0.0116924 0.0109689 0.0103544 0.0102563 0.00992407 0.00974415 0.00963572 0.00956839 0.00947987 0.00932759 0.0089231 0.00882187 0.00900029 0.0104086 0.0131659 0.0144981 0.0151389 0.0158709 0.0166385 0.0180109 0.0200211 0.0199337 0.0125997 0.00500076 0.0071094 0.0100796 0.0147534 0.0144737 0.00965235 0.00642255 0.0180874 0.016969 0.0136151 0.0118769 0.0108103 0.0104536 0.0100535 0.00982467 0.00970377 0.00965143 0.00969243 0.0099159 0.0104386 0.0110524 0.0101816 0.00990545 0.011038 0.0120315 0.0127239 0.0133009 0.0137382 0.0143665 0.0152195 0.016416 0.0150201 0.00919046 0.0101079 0.0124006 0.018092 0.0150314 0.00620808 0.00923925 0.0190167 0.01809 0.0142722 0.01229 0.0111028 0.010705 0.0102497 0.00995996 0.00980691 0.00974641 0.00988755 0.0104493 0.0118067 0.0129539 0.0112835 0.00891598 0.00905757 0.00995824 0.0107023 0.0111433 0.0113447 0.0115505 0.011477 0.0133187 0.0170481 0.0132738 0.0147336 0.0161368 0.0193761 0.0173933 0.00551038 0.0109234 0.0170287 0.0162921 0.0139607 0.0124358 0.01139 0.0108874 0.0104289 0.010129 0.0100022 0.0100136 0.010367 0.0113707 0.0137617 0.0158219 0.0130363 0.00770556 0.00586452 0.00701921 0.00816117 0.00859262 0.00851112 0.0080723 0.00648427 0.00928769 0.018008 0.0182597 0.0175335 0.016628 0.0192026 0.0214529 0.0125092 0.0126093 0.0157393 0.0147619 0.0135985 0.0124053 0.011553 0.0112704 0.0107291 0.0103716 0.0102178 0.0102481 0.0106438 0.0117798 0.0144377 0.0175928 0.0157106 0.00804347 0.00395764 0.00410992 0.00537312 0.00576445 0.00548964 0.00470869 0.00172064 0.00585338 0.0212826 0.0236854 0.0204784 0.0184128 0.0182015 0.0188777 0.0153497 0.0151588 0.0161782 0.0150622 0.0141024 0.0129274 0.0120272 0.0115326 0.0109505 0.0105662 0.0103952 0.0104264 0.0107747 0.011741 0.0140611 0.0176101 0.0194352 0.0135903 0.00231644 -0.000312723 0.0016432 0.00198297 0.00211572 0.000534964 -0.00130869 0.0106576 0.0253373 0.0244536 0.0205683 0.0187187 0.0183986 0.019002 0.0170204 0.0161893 0.0162725 0.0151728 0.0143262 0.0132237 0.0123208 0.0118847 0.0112255 0.0107915 0.0105815 0.0105822 0.0108373 0.0115062 0.0131294 0.0158956 0.0191653 0.018248 0.00744659 -0.00248001 -0.00326297 -0.00313678 -0.00137572 0.00115626 0.00423813 0.0166527 0.0236667 0.0211818 0.018986 0.0180139 0.0180204 0.0183657 0.0175686 0.0167881 0.0168551 0.0158436 0.0149428 0.0137783 0.0127628 0.0120802 0.0113797 0.0109203 0.0106732 0.0106229 0.0107319 0.0110655 0.0117673 0.0131453 0.0146499 0.0154173 0.0116315 0.00159349 -0.00328618 -0.00403723 3.57112e-05 0.00680527 0.0109519 0.0157243 0.0187011 0.0176831 0.0171632 0.0172734 0.0180501 0.0186087 0.0182398 0.016565 0.0170109 0.0162415 0.015281 0.0141053 0.0130026 0.0122393 0.0115124 0.0110418 0.0107778 0.0106971 0.0107353 0.0108922 0.0111456 0.0116172 0.0119963 0.011915 0.00949108 0.00522622 0.00144003 0.000305982 0.00386007 0.00849609 0.0106751 0.013722 0.0152461 0.0152512 0.01558 0.0163192 0.0180977 0.0189347 0.0185501 0.0166118 0.0173941 0.016801 0.015654 0.0144081 0.0132045 0.0122617 0.0115343 0.0110764 0.0108112 0.0107052 0.0106825 0.0107277 0.0107513 0.0108166 0.0107226 0.0104083 0.00926695 0.00678389 0.00495718 0.00416864 0.00587527 0.0084544 0.0101097 0.0119059 0.013179 0.0137586 0.0145097 0.0162015 0.0198278 0.0206693 0.0191122 0.0137693 0.0158308 0.0173146 0.0157586 0.0145465 0.0132335 0.0121225 0.01148 0.0110728 0.0108393 0.0107319 0.0106836 0.0106709 0.0106042 0.0104989 0.0102097 0.00975373 0.0088693 0.00762495 0.00670295 0.00630213 0.00734174 0.00871147 0.00976327 0.0110294 0.0119284 0.0123175 0.0124767 0.0151594 0.0214843 0.0229427 0.020839 0.0132796 0.015443 0.0165752 0.0151953 0.014135 0.0129981 0.0120163 0.0114198 0.0110451 0.0108437 0.0107406 0.0106779 0.0106292 0.0105262 0.0103709 0.0100801 0.00966338 0.00908279 0.00829115 0.00781338 0.00760671 0.00816404 0.00899131 0.00981645 0.0106956 0.0113163 0.0112348 0.010813 0.0147065 0.021623 0.022427 0.0206376 0.0137711 0.0138947 0.0172915 0.0164202 0.0142307 0.0129819 0.0116963 0.0112533 0.0109725 0.0108342 0.0107586 0.0107049 0.0106474 0.0105407 0.0103832 0.0101266 0.0097858 0.0093654 0.00888722 0.00862379 0.00852402 0.00892307 0.00948619 0.0101574 0.0108728 0.0114516 0.0112766 0.0113585 0.0167564 0.0228866 0.0217729 0.0196752 0.0130014 0.0139389 0.0144142 0.014753 0.0134382 0.0124598 0.0113589 0.0110823 0.0109041 0.0108261 0.0107814 0.0107439 0.0106927 0.0106016 0.0104687 0.0102743 0.010025 0.0097524 0.00945648 0.00932306 0.00930458 0.00959738 0.0100423 0.010637 0.0113271 0.0119323 0.0122014 0.0124374 0.0167908 0.0224717 0.021607 0.0188901 0.0131218 0.0153783 0.0113053 0.0123833 0.0123685 0.0118273 0.0111727 0.0109687 0.010861 0.0108274 0.0108137 0.0107986 0.0107677 0.0107067 0.0106153 0.0104873 0.0103287 0.0101687 0.0100121 0.00997106 0.010016 0.0102813 0.0106923 0.0112787 0.0120964 0.012974 0.014182 0.0152042 0.0193071 0.0244183 0.02104 0.0138133 0.00373011 0.0124574 0.0131729 0.0127347 0.0121523 0.01156 0.0109573 0.010865 0.0108329 0.0108383 0.0108517 0.0108588 0.0108537 0.0108296 0.0107876 0.0107283 0.0106546 0.0105909 0.0105373 0.0105647 0.0106568 0.0108986 0.0112683 0.0118092 0.0125926 0.0135463 0.0149294 0.0164629 0.0201131 0.0241198 0.0205162 0.0124796 0.00210423 0.0109537 0.0123912 0.0117296 0.0114571 0.0111396 0.0108554 0.0108216 0.01083 0.0108558 0.0108887 0.0109171 0.0109421 0.0109598 0.010973 0.0109827 0.0109905 0.0110107 0.011042 0.0111241 0.0112483 0.011468 0.0117822 0.0122302 0.0128666 0.0136589 0.0146904 0.0158267 0.0173999 0.0194595 0.0180741 0.0143866 0.0085061 0.0108298 0.0109664 0.0111793 0.011059 0.0109392 0.0108319 0.0108191 0.0108421 0.0108744 0.0109187 0.0109658 0.0110212 0.0110824 0.0111524 0.0112303 0.0113156 0.0114123 0.0115168 0.011645 0.0117928 0.0119881 0.0122428 0.0125927 0.0130799 0.013714 0.0145052 0.0154089 0.0162863 0.0172296 0.0157474 0.0138344 0.010171 0.011496 0.0110877 0.0111273 0.0109686 0.0108781 0.0108587 0.0108379 0.0108543 0.0108826 0.0109328 0.010997 0.0110832 0.0111889 0.0113171 0.0114636 0.0116256 0.0117966 0.0119698 0.0121388 0.0123013 0.0124611 0.0126385 0.0128592 0.0131559 0.0135551 0.0140218 0.0145834 0.0149661 0.0154137 0.0145697 0.0136073 0.0116128 0.0117763 0.0112493 0.0111738 0.0109992 0.0109054 
        </DataArray>
        <DataArray Name="vz" NumberOfComponents="1" type="Float32" format="ascii">
0 0 0 0 0 0 0 0 0 0 0 0 0 0 0 0 0 0 0 0 0 0 0 0 0 0 0 0 0 0 0 0 0 0 0 0 0 0 0 0 0 0 0 0 0 0 0 0 0 0 0 0 0 0 0 0 0 0 0 0 0 0 0 0 0 0 0 0 0 0 0 0 0 0 0 0 0 0 0 0 0 0 0 0 0 0 0 0 0 0 0 0 0 0 0 0 0 0 0 0 0 0 0 0 0 0 0 0 0 0 0 0 0 0 0 0 0 0 0 0 0 0 0 0 0 0 0 0 0 0 0 0 0 0 0 0 0 0 0 0 0 0 0 0 0 0 0 0 0 0 0 0 0 0 0 0 0 0 0 0 0 0 0 0 0 0 0 0 0 0 0 0 0 0 0 0 0 0 0 0 0 0 0 0 0 0 0 0 0 0 0 0 0 0 0 0 0 0 0 0 0 0 0 0 0 0 0 0 0 0 0 0 0 0 0 0 0 0 0 0 0 0 0 0 0 0 0 0 0 0 0 0 0 0 0 0 0 0 0 0 0 0 0 0 0 0 0 0 0 0 0 0 0 0 0 0 0 0 0 0 0 0 0 0 0 0 0 0 0 0 0 0 0 0 0 0 0 0 0 0 0 0 0 0 0 0 0 0 0 0 0 0 0 0 0 0 0 0 0 0 0 0 0 0 0 0 0 0 0 0 0 0 0 0 0 0 0 0 0 0 0 0 0 0 0 0 0 0 0 0 0 0 0 0 0 0 0 0 0 0 0 0 0 0 0 0 0 0 0 0 0 0 0 0 0 0 0 0 0 0 0 0 0 0 0 0 0 0 0 0 0 0 0 0 0 0 0 0 0 0 0 0 0 0 0 0 0 0 0 0 0 0 0 0 0 0 0 0 0 0 0 0 0 0 0 0 0 0 0 0 0 0 0 0 0 0 0 0 0 0 0 0 0 0 0 0 0 0 0 0 0 0 0 0 0 0 0 0 0 0 0 0 0 0 0 0 0 0 0 0 0 0 0 0 0 0 0 0 0 0 0 0 0 0 0 0 0 0 0 0 0 0 0 0 0 0 0 0 0 0 0 0 0 0 0 0 0 0 0 0 0 0 0 0 0 0 0 0 0 0 0 0 0 0 0 0 0 0 0 0 0 0 0 0 0 0 0 0 0 0 0 0 0 0 0 0 0 0 0 0 0 0 0 0 0 0 0 0 0 0 0 0 0 0 0 0 0 0 0 0 0 0 0 0 0 0 0 0 0 0 0 0 0 0 0 0 0 0 0 0 0 0 0 0 0 0 0 0 0 0 0 0 0 0 0 0 0 0 0 0 0 0 0 0 0 0 0 0 0 0 0 0 0 0 0 0 0 0 0 0 0 0 0 0 0 0 0 0 0 0 0 0 0 0 0 0 0 0 0 0 0 0 0 0 0 0 0 0 0 0 0 0 0 0 0 0 0 0 0 0 0 0 0 0 0 0 0 0 0 0 0 0 0 0 0 0 0 0 0 0 0 0 0 0 0 0 0 0 0 0 0 0 0 0 0 0 0 0 0 0 0 0 0 0 0 0 0 0 0 0 0 0 0 0 0 0 0 0 0 0 0 0 0 0 0 0 0 0 0 0 0 0 0 0 0 0 0 0 0 0 0 0 0 0 0 0 0 0 0 0 0 0 0 0 0 0 0 0 0 0 0 0 0 0 0 0 0 0 0 0 0 0 0 0 0 0 0 0 0 0 0 0 0 0 0 0 0 0 0 0 0 0 0 0 0 0 0 0 0 0 0 0 0 0 0 0 0 0 0 0 0 0 0 0 0 0 0 0 0 0 0 0 0 0 0 0 0 0 0 0 0 0 0 0 0 0 0 0 0 0 0 0 0 0 0 0 0 0 0 0 0 0 0 0 0 0 0 0 0 0 0 0 0 0 0 0 0 0 0 0 0 0 0 0 0 0 0 0 0 0 0 0 0 0 0 0 0 0 0 0 0 0 0 0 0 0 0 0 0 0 0 0 0 0 0 0 0 0 0 0 0 0 0 0 0 0 0 0 0 0 0 0 0 0 0 0 0 0 0 0 0 0 0 0 0 0 0 0 0 0 0 0 0 0 0 0 0 0 0 0 0 0 0 0 0 0 0 0 0 0 0 0 0 0 0 0 0 0 0 0 0 0 0 0 0 0 0 0 0 0 0 0 0 0 0 0 0 0 0 0 0 0 0 0 0 0 0 0 0 0 0 0 0 0 0 0 0 0 0 0 0 0 0 0 0 0 0 0 0 0 0 0 0 0 0 0 0 0 0 0 0 0 0 0 
        </DataArray>
        <DataArray Name="p" NumberOfComponents="1" type="Float32" format="ascii">