<?xml version="1.0"?>
<VTKFile type="StructuredGrid" version="0.1" byte_order="LittleEndian">
  <StructuredGrid WholeExtent="0 32 0 32 0 1">
    <Piece Extent="0 32 0 32 0 1">
      <PointData>
      </PointData>
      <CellData>
        <DataArray Name="vx" NumberOfComponents="1" type="Float32" format="ascii">
0.0283799 0.0295973 0.0305756 0.0312291 0.0310456 0.0299032 0.0274447 0.0240433 0.0203305 0.0164498 0.0128016 0.00968151 0.00768204 0.00683053 0.00713813 0.00817382 0.00972584 0.0115688 0.0135035 0.0154139 0.0171811 0.0186363 0.0197671 0.0206915 0.0214266 0.0220962 0.0227394 0.0234194 0.0241871 0.025059 0.0260634 0.0271925 0.0292029 0.0310093 0.032667 0.0340344 0.0343261 0.0331936 0.0299093 0.0253618 0.0206836 0.0159042 0.0112514 0.00712008 0.0046451 0.00388864 0.0048033 0.00655673 0.00877242 0.0111286 0.0133307 0.0153473 0.0171699 0.018555 0.0195835 0.0204442 0.0211213 0.0217717 0.0224092 0.0231141 0.0239452 0.0249361 0.0261408 0.02758 0.0297739 0.0323303 0.0349729 0.0375303 0.0388269 0.0381388 0.0339208 0.0276448 0.0213667 0.0149327 0.00855788 0.00301828 3.58862e-05 -0.000273183 0.00177784 0.00467345 0.00783622 0.0108855 0.0134298 0.0155673 0.0174463 0.0187211 0.0195961 0.0203308 0.0208814 0.0214449 0.022005 0.0226665 0.0234954 0.0245476 0.0259132 0.0276571 0.0303229 0.0339254 0.0380998 0.0424497 0.0453415 0.0447145 0.0377018 0.0285785 0.0212465 0.0144552 0.00653889 -0.00164574 -0.00616523 -0.00638158 -0.00267246 0.00205181 0.00666156 0.0107828 0.0137038 0.0160194 0.0182854 0.0193933 0.019859 0.0203343 0.0206615 0.0210806 0.0215137 0.0220886 0.0228734 0.0239554 0.0254733 0.0275665 0.0297794 0.0343909 0.0402596 0.0468331 0.0516571 0.0512738 0.0428313 0.0320841 0.0219292 0.0115377 0.00257698 -0.00648557 -0.0125121 -0.0126842 -0.00664545 0.000345735 0.00659222 0.0117361 0.0148194 0.0170986 0.0195206 0.0203993 0.0203969 0.0204689 0.0205045 0.0206914 0.0208932 0.0212615 0.0218606 0.0228073 0.0242911 0.0265376 0.0285386 0.034218 0.042112 0.0503261 0.0565018 0.047495 0.0230009 0.00986096 0.0164847 0.0264253 0.0260445 0.00929891 -0.00932969 -0.0171854 -0.0108928 -0.00132954 0.00673578 0.0131185 0.0152773 0.0174645 0.0221766 0.0230783 0.021447 0.0206552 0.0202522 0.0201557 0.0201043 0.0202189 0.0205556 0.0212588 0.0225751 0.0248508 0.0241347 0.0292197 0.0365155 0.0437929 0.044139 0.0204649 -0.016866 -0.0238222 0.00803282 0.0495252 0.0659275 0.0459815 0.0118198 -0.00957672 -0.00604402 0.00354003 0.0105367 0.015186 0.0160663 0.0176981 0.0220104 0.0247382 0.0234944 0.0211615 0.0201439 0.0196209 0.0191822 0.0188833 0.0187314 0.0188642 0.0195286 0.0210919 0.0177601 0.0215734 0.0283892 0.0360136 0.0330235 0.0316088 0.0420213 0.0415926 0.0247287 1.40496e-05 -0.0140425 -0.0103566 -0.00762106 -0.0124636 -0.00673014 0.00737205 0.0142902 0.0189794 0.0215654 0.0212728 0.0185242 0.0199012 0.0214504 0.0203886 0.0197015 0.018919 0.0181735 0.0174162 0.0166756 0.0160439 0.0157175 0.0160885 0.00667569 0.0039891 0.00234217 -0.00484231 -0.0105223 0.001843 0.029157 0.0404001 0.0255598 0.00313396 -0.00074682 0.0160011 0.0400981 0.0465206 0.0347288 0.0310005 0.0277418 0.0273304 0.0245584 0.018009 0.0138425 0.00771332 0.0104896 0.0169845 0.0176094 0.0177104 0.0168869 0.0157532 0.014305 0.0126093 0.0107164 0.00859005 -0.00699221 -0.0174459 -0.0355366 -0.0468755 -0.0428738 -0.0304157 -0.00908845 0.00866558 0.0164886 0.022792 0.0357304 0.0540513 0.0737625 0.0874982 0.0769233 0.0546463 0.041175 0.0277634 0.0178116 0.0161773 0.0181466 0.0173615 0.0183155 0.019534 0.019165 0.0179399 0.016451 0.0145912 0.0122982 0.00943197 0.00561482 0.000559059 -0.014322 -0.0272256 -0.0429213 -0.0553026 -0.0564493 -0.0445798 -0.0238253 -0.00283687 0.0132568 0.0289899 0.0475528 0.0681912 0.0839134 0.0954994 0.0916111 0.0715727 0.0533504 0.0386843 0.0281141 0.0253618 0.025976 0.0270695 0.0256507 0.0218093 0.0200864 0.0180988 0.0161092 0.0137569 0.0108631 0.0071662 0.00219613 -0.00471675 -0.0152179 -0.0269646 -0.0365657 -0.0522376 -0.0604117 -0.0482915 -0.0278237 -0.00583978 0.0124957 0.0308935 0.0509321 0.0726455 0.088436 0.0953848 0.0911325 0.0758126 0.0594147 0.0469078 0.0411711 0.0361605 0.0296332 0.0283729 0.0259959 0.0227003 0.0206847 0.0184223 0.0161683 0.0135849 0.010464 0.00651343 0.00129721 -0.00592247 -0.0145961 -0.0276516 -0.0435945 -0.0563807 -0.0565938 -0.0440504 -0.0235346 -0.00251279 0.013719 0.0297498 0.0480958 0.0687361 0.0833016 0.091934 0.0868796 0.0705582 0.0574295 0.0465779 0.0432952 0.0403626 0.0343502 0.03134 0.0279041 0.0242527 0.0216454 0.0190663 0.0166107 0.0139662 0.0108755 0.00703886 0.0019988 -0.00506193 -0.00811265 -0.0191055 -0.037756 -0.0497995 -0.0439863 -0.0299772 -0.00998097 0.00761344 0.0169041 0.0256098 0.0394203 0.0587049 0.0753775 0.0880075 0.0805544 0.0604295 0.0493916 0.0401637 0.0382463 0.0382837 0.0361539 0.0334763 0.029282 0.0251363 0.0221726 0.0195016 0.0171415 0.014777 0.0121479 0.00905713 0.00506858 -0.000302076 0.00553835 0.00184996 0.000661948 -0.00897548 -0.0145946 0.00177673 0.0299262 0.0408085 0.0255593 0.00473889 0.0038879 0.0259847 0.0530407 0.0607434 0.0484687 0.0379033 0.032048 0.0257662 0.0277139 0.0340151 0.0368708 0.0363793 0.0319287 0.0266324 0.0229598 0.0201018 0.0179027 0.0159701 0.0140719 0.0121219 0.0100602 0.00764629 0.0173003 0.0210614 0.0288602 0.0355126 0.0322135 0.0351665 0.0510732 0.0512356 0.0277881 -0.00496174 -0.01976 -0.00981489 0.00883688 0.00811362 0.00392594 0.0116441 0.0108093 0.00585957 0.0125518 0.0294923 0.0411462 0.0436161 0.0369786 0.0282993 0.0232994 0.0201285 0.0182749 0.016979 0.0159505 0.0152526 0.0149479 0.0153812 0.0237629 0.0292737 0.0369959 0.0448418 0.041242 0.0143866 -0.0214456 -0.0247767 0.0107281 0.053283 0.0671487 0.0421043 0.00712252 -0.0106047 -0.00723929 -0.00166407 -0.00895739 -0.0272113 -0.0111843 0.0294441 0.0533552 0.0615151 0.0521732 0.0358831 0.0252317 0.0203578 0.0184257 0.0177248 0.0174792 0.017746 0.0185727 0.0204077 0.0281164 0.0343754 0.042705 0.0514826 0.0554244 0.0428831 0.0175625 0.00720225 0.0191924 0.0349236 0.0374694 0.0176996 -0.00660424 -0.014 -0.0116369 -0.0123779 -0.0338943 -0.0546597 -0.0213662 0.0223933 0.054804 0.0732718 0.0677104 0.0456055 0.0286505 0.020916 0.0184733 0.018213 0.0185953 0.0196362 0.0212769 0.0239944 0.0292817 0.0345323 0.0409118 0.0480291 0.0524085 0.050225 0.0411881 0.0311849 0.0229815 0.0154005 0.00938139 0.00123873 -0.00689496 -0.0050728 -0.00129943 0.010379 0.000351326 0.0160493 0.0266832 0.0121992 0.0174832 0.0192014 0.0331298 0.0293441 0.019311 0.0170223 0.0165761 0.0175916 0.0188961 0.0205821 0.0226605 0.0255191 0.0295617 0.0337364 0.0383773 0.0431956 0.0462365 0.0449942 0.0377791 0.0289252 0.0224616 0.0169187 0.010595 0.00457216 0.00229405 0.00927788 0.0211566 0.0569337 0.0831973 0.110917 0.0809116 0.0251539 -0.0162563 -0.0521743 -0.0438596 -0.0193877 -0.00092103 0.0096445 0.0140113 0.0170804 0.0191267 0.021259 0.023503 0.0262684 0.0289362 0.0320251 0.0350817 0.0379774 0.0394738 0.0385917 0.0344225 0.0284861 0.0227273 0.0172445 0.0126981 0.00984431 0.0107751 0.0188229 0.0365938 0.0752521 0.13021 0.1549 0.101178 0.0139104 -0.0680639 -0.109936 -0.101164 -0.060305 -0.0162968 0.000920725 0.0110597 0.0154533 0.0188335 0.02131 0.0237181 0.0262345 0.0282916 0.030548 0.0325658 0.0342285 0.034753 0.0336657 0.0305086 0.0261959 0.0220046 0.0178719 0.0144795 0.011541 0.012134 0.013853 0.0248988 0.0351126 0.0667198 0.0940597 0.061296 0.00188111 -0.0578678 -0.0726223 -0.0503964 -0.0262651 -0.00148095 0.00942775 0.0147072 0.0178754 0.0200953 0.0221426 0.0240991 0.0261738 0.0275974 0.0291716 0.030435 0.0313147 0.0313199 0.0302751 0.0279721 0.0247888 0.0214015 0.0178863 0.0149075 0.0120411 0.0106178 0.00789885 0.00586726 -0.0067817 -0.0141469 0.0095895 0.0138714 0.00333907 -0.00841086 -0.00223636 0.0164755 0.0199677 0.0165184 0.0172709 0.0183344 0.0197189 0.021256 0.0228076 0.0243834 0.02601 0.0270045 0.0281009 0.0288803 0.0292843 0.0289926 0.0279383 0.0260227 0.0234718 0.0207069 0.0177367 0.0150579 0.0121336 0.00989971 0.00594865 -0.000377855 -0.0159341 -0.0411465 -0.0503518 -0.0262869 0.00932115 0.0448673 0.06925 0.0595637 0.0407192 0.0277595 0.0226167 0.0213995 0.0216132 0.0223787 0.0234356 0.0245941 0.0258289 0.0265984 0.0273159 0.0277406 0.0278266 0.0273649 0.0263339 0.0246848 0.0225388 0.0201471 0.0175417 0.01508 0.0124367 0.0101645 0.0070283 0.0029126 -0.00529163 -0.0195743 -0.0325739 -0.0201055 0.0140532 0.0498523 0.0621509 0.0478579 0.0344209 0.0264306 0.0234027 0.02262 0.0227257 0.0232576 0.0240149 0.0248687 0.0257699 0.0262768 0.0267648 0.0269801 0.026882 0.0263237 0.0253049 0.0237971 0.0218917 0.0197513 0.0174126 0.0151204 0.0126753 0.0104391 0.00782881 0.00482372 0.00104049 -0.00513894 -0.00968414 -0.00260326 0.0168835 0.0372304 0.0431639 0.0364749 0.0298853 0.0261305 0.0241722 0.0235305 0.0234595 0.0237743 0.0243191 0.0249704 0.0256612 0.0261677 0.0264915 0.0265628 0.0263443 0.0257227 0.0247034 0.023267 0.0214866 0.0194817 0.0173115 0.0151667 0.0129755 0.0109932 0.00896834 0.0070407 0.00521353 0.00315968 0.00254416 0.00721387 0.0172924 0.027557 0.0312148 0.0290882 0.0266835 0.0250685 0.024174 0.0238881 0.0239236 0.0242103 0.0246553 0.0251754 0.0257111 0.0261566 0.0264225 0.0264414 0.0261766 0.0255259 0.0244989 0.0230775 0.0213363 0.0193799 0.0172847 0.0152121 0.0131659 0.0113412 0.0096668 0.00825327 0.00732503 0.00675299 0.00755465 0.0111051 0.0170015 0.0228944 0.0258153 0.0257804 0.0250713 0.0244924 0.0240632 0.0239625 0.0240655 0.0243613 0.024783 0.0252666 0.0257526 0.0263294 0.0265978 0.0266192 0.0263563 0.0256959 0.0246464 0.0231832 0.0213867 0.0193752 0.0172458 0.0151699 0.0132111 0.0115552 0.0102031 0.00927194 0.00887873 0.00903965 0.0101889 0.0127997 0.0165505 0.02028 0.0225648 0.0233264 0.0235435 0.0236091 0.0236582 0.0238299 0.0241002 0.0244819 0.0249403 0.0254375 0.0259248 0.0266386 0.0269991 0.0271017 0.0269048 0.0262601 0.0251741 0.0236039 0.0216547 0.0194796 0.0171957 0.0150016 0.0129966 0.0113893 0.0102121 0.0095672 0.00950297 0.0100185 0.0112966 0.0134531 0.0161981 0.0189112 0.0208742 0.0219503 0.022564 0.0229609 0.0232659 0.0236064 0.0240002 0.0244745 0.0250093 0.025582 0.0261485 0.0270906 0.0276216 0.0278865 0.0278365 0.0272558 0.026136 0.0243924 0.0221616 0.0196768 0.0170743 0.0146116 0.0124367 0.0108133 0.00977838 0.00941644 0.00965795 0.0104627 0.0118227 0.0136958 0.0158718 0.017998 0.0196926 0.0208563 0.0216903 0.0223097 0.0228286 0.0233318 0.0238575 0.0244413 0.0250774 0.0257597 0.0264537 0.0277129 0.0285265 0.0290687 0.0292737 0.0288098 0.0276368 0.0255865 0.0228966 0.0199308 0.0168409 0.0139352 0.0113991 0.00963132 0.00866355 0.0085686 0.00913485 0.010252 0.011794 0.0136314 0.0155972 0.0174758 0.0190356 0.0202087 0.0211222 0.0218333 0.0224551 0.0230499 0.0236684 0.0243541 0.0251109 0.0259473 0.0268382 
        </DataArray>
        <DataArray Name="vy" NumberOfComponents="1" type="Float32" format="ascii">
0.00612845 0.00708973 0.00861296 0.010689 0.0133758 0.0162056 0.018929 0.0205615 0.0214367 0.0213303 0.0205016 0.0186319 0.0162268 0.0136504 0.0114504 0.00988132 0.0088692 0.00839797 0.00820271 0.00809615 0.00795541 0.00779209 0.00747649 0.00716743 0.00679879 0.00645537 0.0061154 0.00581463 0.00556109 0.00540572 0.00538632 0.00559927 0.00463125 0.00560643 0.00736429 0.0100091 0.0136975 0.0178613 0.022031 0.0244942 0.0257643 0.0255828 0.0242601 0.0212973 0.0175294 0.0135807 0.010378 0.00819914 0.00687119 0.00630175 0.00618581 0.00622987 0.00635063 0.0065044 0.00644264 0.00633596 0.00608313 0.00579107 0.00543201 0.0050567 0.00467922 0.00436493 0.00416763 0.00421415 0.00275942 0.00367583 0.00568501 0.00917336 0.0143593 0.0208067 0.0268485 0.0295719 0.0306338 0.0303918 0.029282 0.0252759 0.0196757 0.013639 0.00892802 0.0059794 0.00436927 0.00383854 0.00401915 0.00423379 0.00473472 0.00537885 0.00558448 0.00565402 0.00547405 0.00519406 0.00478292 0.00429843 0.00375718 0.00322602 0.00277552 0.00255671 -9.30239e-05 0.000287507 0.00201566 0.00596619 0.0128511 0.0225384 0.03249 0.037378 0.0391857 0.0388226 0.0365155 0.0296406 0.0206633 0.0115017 0.0052193 0.0019395 0.000583285 0.000615282 0.00149571 0.00219669 0.00321535 0.00432092 0.0048337 0.00504829 0.00493664 0.00466103 0.00418123 0.00354909 0.00277639 0.00191402 0.00103492 0.000287952 -0.0034912 -0.00394423 -0.00264344 0.00248752 0.0125269 0.0294063 0.0431661 0.0448102 0.0430957 0.0430703 0.0449952 0.0382684 0.0253236 0.0108777 0.00101015 -0.00305891 -0.00411805 -0.00318082 -0.00103008 -0.000369406 0.00137828 0.00377353 0.00465415 0.00486144 0.0047266 0.00437617 0.00378583 0.00296428 0.00191547 0.000644748 -0.00078381 -0.00225737 -0.00808519 -0.0104531 -0.0109667 -0.00611162 0.00734376 0.0300973 0.0514348 0.0605513 0.0630802 0.0609671 0.0563689 0.0438952 0.0256453 0.00415722 -0.00890839 -0.0120026 -0.011142 -0.00792779 -0.00398137 -0.00266665 -5.82396e-05 0.00322479 0.00497498 0.00496786 0.00472685 0.00428707 0.00358505 0.00256555 0.00120693 -0.000562294 -0.00273193 -0.00531141 -0.0127026 -0.0171557 -0.0184274 -0.0103357 0.0170736 0.0675178 0.081286 0.0467296 0.018884 0.0249808 0.0597051 0.0760909 0.05578 0.015477 -0.0133332 -0.0196406 -0.0179543 -0.0115613 -0.00458305 -0.00705168 -0.00402635 0.00425011 0.00701603 0.00581263 0.00514265 0.00449327 0.00370794 0.00252692 0.000900759 -0.00135433 -0.00430707 -0.00815777 -0.0164804 -0.0231624 -0.0270776 -0.0160851 0.0269359 0.0860585 0.0938294 0.0432537 0.00140242 0.0140365 0.0653355 0.093785 0.0751781 0.0181877 -0.0260486 -0.030193 -0.0236535 -0.0143972 -0.00720991 -0.00950268 -0.00712519 0.00075282 0.0101609 0.00864867 0.00654296 0.00538693 0.0043552 0.00303025 0.00121834 -0.00138919 -0.00499794 -0.0100082 -0.0179692 -0.0274404 -0.0324691 -0.0124353 0.0256693 0.0611165 0.0730089 0.0599113 0.0484332 0.0538631 0.0677378 0.0722887 0.0607864 0.0202063 -0.0316147 -0.0387166 -0.0285884 -0.0184966 -0.00524642 -0.00322764 -0.0012993 0.00151846 0.0058279 0.00622903 0.00621895 0.00576464 0.00511247 0.00398949 0.00227725 -0.000384321 -0.00428411 -0.010138 -0.0119156 -0.017884 -0.0192435 -0.00378746 0.0198119 0.044359 0.0543438 0.0489601 0.0439452 0.0462713 0.0531567 0.0516509 0.043184 0.024252 -0.0106433 -0.0251864 -0.0197073 -0.0110247 0.000949928 3.03828e-05 0.00155684 0.00467058 0.000226921 0.00309132 0.00586247 0.00645435 0.00637233 0.00566706 0.0043708 0.00223382 -0.000993854 -0.00578989 2.10666e-05 -8.06429e-05 -0.0028589 -0.00397943 0.0103866 0.0271614 0.0338302 0.0332314 0.032232 0.0331542 0.0354362 0.0337876 0.0273298 0.0162001 0.00357855 -0.00466401 -0.00149444 0.00471391 0.00700134 -0.00284912 -0.0020625 0.00306336 0.00249715 0.00581678 0.00775408 0.00839464 0.00844502 0.00813003 0.00743855 0.00630501 0.0045881 0.00238793 0.0106587 0.0105728 0.00978509 0.00776875 0.00877436 0.0110151 0.0123359 0.0130913 0.0136056 0.0138953 0.0142315 0.0149158 0.0156153 0.0148116 0.0133603 0.0131915 0.0135535 0.0147136 0.0139255 0.00154704 3.12601e-06 0.00421009 0.00538158 0.00807796 0.00959347 0.0103747 0.0107171 0.0108922 0.0109248 0.0109041 0.0108073 0.0107611 0.0210914 0.0211698 0.0232817 0.0197279 0.00701014 -0.00525695 -0.00918681 -0.00742289 -0.0056646 -0.00575104 -0.00682098 -0.00368468 0.0052003 0.0149034 0.0229826 0.028042 0.0261295 0.022426 0.0176707 0.0088561 0.0057048 0.00694343 0.00886471 0.0110581 0.0121922 0.012884 0.0133364 0.0138633 0.0145294 0.0155448 0.0170302 0.0190096 0.0331071 0.0389108 0.0400492 0.0180192 -0.00312555 -0.0227998 -0.0294431 -0.0228337 -0.0169154 -0.01863 -0.0244632 -0.0209678 -0.00803832 0.00985674 0.0344222 0.0427752 0.0375427 0.0291447 0.01974 0.0111356 0.00871986 0.0103336 0.0125873 0.0141249 0.0148252 0.0153168 0.0157956 0.0165856 0.01779 0.0197645 0.0227815 0.0273118 0.0400164 0.0495055 0.0544371 0.0267103 -0.0110349 -0.039055 -0.0466356 -0.0354316 -0.026552 -0.0304373 -0.0399956 -0.0395921 -0.0234375 0.00941657 0.0525388 0.058006 0.0472714 0.0337389 0.0195761 0.0108633 0.0104658 0.0138509 0.0173318 0.0179971 0.017906 0.0178584 0.0180901 0.0188743 0.0202657 0.0226639 0.0263945 0.0321304 0.0387692 0.0453327 0.0495145 0.0328505 -0.0161236 -0.0703226 -0.0703958 -0.0155839 0.0264007 0.00961771 -0.0450521 -0.0739447 -0.047661 0.0155373 0.0569437 0.0575872 0.0495091 0.0341689 0.0105853 0.00224239 0.00622038 0.01569 0.0224583 0.0231736 0.0215218 0.0204014 0.0199819 0.0204328 0.0216242 0.0238102 0.0272014 0.0320922 0.0344804 0.0385836 0.0395846 0.0278548 -0.00533753 -0.0541111 -0.0602444 -0.0175821 0.0150463 0.00558537 -0.0362968 -0.0616818 -0.0356024 0.0204084 0.0489104 0.0520316 0.0522941 0.0338053 -0.0037055 -0.0174194 -0.00316615 0.0187759 0.0320351 0.0310661 0.0258825 0.0226051 0.0211365 0.0211415 0.0219758 0.0237072 0.0263315 0.0299537 0.0294636 0.0316651 0.031871 0.0257958 0.00925088 -0.0138617 -0.0325838 -0.0388415 -0.0383358 -0.0343143 -0.0293539 -0.0217769 -0.00195394 0.0258797 0.0475371 0.0597251 0.0740131 0.0405479 -0.0519893 -0.0634339 -0.0293003 0.0196494 0.0479735 0.050972 0.0376114 0.0275454 0.0228778 0.0215172 0.0216693 0.0227276 0.0244722 0.0267946 0.0242729 0.0245517 0.0229475 0.0172922 0.00572838 -0.0116034 -0.0242583 -0.0246268 -0.0214391 -0.0209224 -0.0215571 -0.014267 0.00225042 0.0245367 0.0475507 0.0727925 0.0843689 0.0258007 -0.0801685 -0.0873784 -0.0536532 0.00961046 0.0527548 0.0679346 0.0497639 0.0322163 0.0235319 0.0208602 0.0204396 0.0210024 0.0220107 0.0232264 0.02027 0.0197395 0.0177022 0.0134383 0.00581021 -0.00411325 -0.0135414 -0.0179948 -0.0191071 -0.0176702 -0.0139597 -0.00657745 0.0043639 0.0193714 0.0347686 0.0622685 0.0743166 0.0185576 -0.0532176 -0.0644108 -0.0407526 0.00890202 0.03969 0.0678311 0.0512632 0.0310254 0.0228185 0.0194204 0.0188445 0.0190108 0.0195432 0.020078 0.0168997 0.0159159 0.0137075 0.0100453 0.00447161 -0.00218533 -0.00807545 -0.0105792 -0.0112866 -0.0108431 -0.00963231 -0.00565344 -0.00137756 0.0045543 0.00134767 0.00321988 0.032437 0.0257245 0.0158242 0.0142711 0.0291876 0.0340709 0.0226568 0.0239506 0.0218461 0.0173285 0.0159322 0.0156867 0.0160903 0.0165735 0.0169878 0.0171822 0.0144416 0.0134768 0.0115977 0.00884796 0.00495266 0.000674994 -0.00345804 -0.00592671 -0.00722726 -0.00717737 -0.00646061 -0.00487828 -0.00478958 -0.00740893 -0.0215787 -0.0382926 0.000300021 0.0399395 0.084141 0.0962532 0.0850744 0.0324135 -0.000401168 -0.0248442 -0.0105506 0.00299524 0.00840986 0.0115978 0.0131362 0.0141385 0.0146627 0.0148106 0.0125703 0.0116825 0.0101231 0.00799864 0.00518407 0.00224396 -0.000542694 -0.00227549 -0.00330081 -0.00356615 -0.00342978 -0.00306291 -0.00344389 -0.00781725 -0.018732 -0.0386879 -0.0238928 0.0313346 0.113459 0.134411 0.111832 0.0214264 -0.0202803 -0.030969 -0.0137598 0.000216667 0.007042 0.0100225 0.0115928 0.0124676 0.0129131 0.0129687 0.0112782 0.0105885 0.00942382 0.00789826 0.00594336 0.00395338 0.00201214 0.000659694 -0.00024947 -0.00059577 -0.000602067 -0.000468129 -0.000496614 -0.00224486 -0.00619731 -0.016177 -0.015207 0.0161239 0.0881575 0.111249 0.0869448 0.0110198 -0.0197018 -0.018108 -0.00573111 0.00260149 0.00679562 0.00901927 0.0103055 0.0111034 0.0115195 0.0115872 0.0103272 0.00982267 0.00899111 0.00792296 0.00659013 0.00525562 0.00395799 0.00302463 0.00237075 0.00206831 0.00204683 0.00212767 0.00251399 0.00222856 0.00243472 0.000949681 0.00395713 0.0205606 0.0535975 0.0677118 0.0515508 0.0138201 -0.00116308 -0.00119038 0.0027042 0.00565551 0.00754368 0.00873656 0.0096029 0.0101709 0.0104938 0.0105498 0.00972429 0.00941552 0.00890012 0.00823865 0.00741911 0.00659788 0.00578991 0.00517921 0.00473525 0.00451169 0.00450059 0.00459279 0.0050182 0.0053101 0.00641911 0.0073806 0.0111612 0.0201052 0.0359329 0.0414608 0.0339867 0.0155258 0.00713892 0.00521693 0.00602248 0.00702965 0.007892 0.0085819 0.00914424 0.00954064 0.00978372 0.00984633 0.00925 0.00913615 0.00890777 0.00859766 0.00820267 0.00780014 0.0073969 0.00708015 0.00684088 0.0067091 0.00671354 0.0068033 0.00720538 0.00769068 0.00893789 0.0106456 0.0137493 0.0194486 0.0266567 0.0291485 0.0251191 0.0162533 0.0107583 0.00866258 0.00791571 0.00787295 0.00807446 0.00836941 0.00869316 0.00895923 0.00915826 0.00925621 0.00892921 0.00899649 0.00903552 0.00905293 0.00904762 0.0090262 0.00899064 0.00894223 0.0088903 0.00883492 0.00882312 0.00883713 0.00905795 0.00939782 0.0102809 0.0115616 0.0137083 0.0168851 0.0204551 0.021546 0.0194232 0.0147885 0.0114881 0.00965947 0.00872501 0.00835119 0.00825366 0.00830212 0.00843128 0.00857326 0.00871575 0.00883494 0.00860471 0.00886822 0.00918139 0.00952847 0.00990948 0.0102627 0.0105848 0.0107896 0.0109038 0.0108895 0.0108148 0.0106792 0.010646 0.0107285 0.0111914 0.012037 0.0133461 0.0152411 0.0169786 0.017458 0.0161408 0.0135688 0.0112955 0.00982518 0.00883908 0.00831218 0.00804697 0.00795706 0.007982 0.00807046 0.00820862 0.00838611 0.00824101 0.00868353 0.0092649 0.00995049 0.0107446 0.0115099 0.0122337 0.01272 0.0130098 0.0130214 0.0128377 0.0124621 0.0120637 0.0117218 0.0116406 0.011869 0.0124223 0.0132923 0.0140485 0.014171 0.0133652 0.011904 0.0104982 0.00943832 0.0086475 0.00813918 0.00781797 0.00764099 0.00757519 0.00760021 0.00771216 0.0079223 0.0077804 0.00842253 0.00930842 0.0103894 0.0116767 0.0129379 0.0141378 0.014924 0.0153845 0.0153761 0.0150294 0.0143075 0.0134332 0.0125516 0.0118857 0.0115543 0.0115186 0.0117891 0.0120167 0.0119642 0.0114146 0.0105306 0.00957362 0.00878751 0.00813104 0.00765924 0.00732018 0.00710266 0.00698859 0.00698243 0.00709032 0.00734792 0.0070576 0.00785664 0.00903392 0.0105453 0.0124254 0.0143327 0.0161887 0.0173939 0.0180823 0.0180503 0.0174571 0.0162359 0.0147063 0.0131095 0.0117602 0.0108318 0.0102755 0.0100934 0.0100205 0.0098989 0.00956262 0.00908269 0.00850625 0.00799345 0.00750734 0.00711018 0.00677505 0.00651777 0.00633691 0.00626345 0.00631854 0.0065672 
        </DataArray>
        <DataArray Name="vz" NumberOfComponents="1" type="Float32" format="ascii">
0 0 0 0 0 0 0 0 0 0 0 0 0 0 0 0 0 0 0 0 0 0 0 0 0 0 0 0 0 0 0 0 0 0 0 0 0 0 0 0 0 0 0 0 0 0 0 0 0 0 0 0 0 0 0 0 0 0 0 0 0 0 0 0 0 0 0 0 0 0 0 0 0 0 0 0 0 0 0 0 0 0 0 0 0 0 0 0 0 0 0 0 0 0 0 0 0 0 0 0 0 0 0 0 0 0 0 0 0 0 0 0 0 0 0 0 0 0 0 0 0 0 0 0 0 0 0 0 0 0 0 0 0 0 0 0 0 0 0 0 0 0 0 0 0 0 0 0 0 0 0 0 0 0 0 0 0 0 0 0 0 0 0 0 0 0 0 0 0 0 0 0 0 0 0 0 0 0 0 0 0 0 0 0 0 0 0 0 0 0 0 0 0 0 0 0 0 0 0 0 0 0 0 0 0 0 0 0 0 0 0 0 0 0 0 0 0 0 0 0 0 0 0 0 0 0 0 0 0 0 0 0 0 0 0 0 0 0 0 0 0 0 0 0 0 0 0 0 0 0 0 0 0 0 0 0 0 0 0 0 0 0 0 0 0 0 0 0 0 0 0 0 0 0 0 0 0 0 0 0 0 0 0 0 0 0 0 0 0 0 0 0 0 0 0 0 0 0 0 0 0 0 0 0 0 0 0 0 0 0 0 0 0 0 0 0 0 0 0 0 0 0 0 0 0 0 0 0 0 0 0 0 0 0 0 0 0 0 0 0 0 0 0 0 0 0 0 0 0 0 0 0 0 0 0 0 0 0 0 0 0 0 0 0 0 0 0 0 0 0 0 0 0 0 0 0 0 0 0 0 0 0 0 0 0 0 0 0 0 0 0 0 0 0 0 0 0 0 0 0 0 0 0 0 0 0 0 0 0 0 0 0 0 0 0 0 0 0 0 0 0 0 0 0 0 0 0 0 0 0 0 0 0 0 0 0 0 0 0 0 0 0 0 0 0 0 0 0 0 0 0 0 0 0 0 0 0 0 0 0 0 0 0 0 0 0 0 0 0 0 0 0 0 0 0 0 0 0 0 0 0 0 0 0 0 0 0 0 0 0 0 0 0 0 0 0 0 0 0 0 0 0 0 0 0 0 0 0 0 0 0 0 0 0 0 0 0 0 0 0 0 0 0 0 0 0 0 0 0 0 0 0 0 0 0 0 0 0 0 0 0 0 0 0 0 0 0 0 0 0 0 0 0 0 0 0 0 0 0 0 0 0 0 0 0 0 0 0 0 0 0 0 0 0 0 0 0 0 0 0 0 0 0 0 0 0 0 0 0 0 0 0 0 0 0 0 0 0 0 0 0 0 0 0 0 0 0 0 0 0 0 0 0 0 0 0 0 0 0 0 0 0 0 0 0 0 0 0 0 0 0 0 0 0 0 0 0 0 0 0 0 0 0 0 0 0 0 0 0 0 0 0 0 0 0 0 0 0 0 0 0 0 0 0 0 0 0 0 0 0 0 0 0 0 0 0 0 0 0 0 0 0 0 0 0 0 0 0 0 0 0 0 0 0 0 0 0 0 0 0 0 0 0 0 0 0 0 0 0 0 0 0 0 0 0 0 0 0 0 0 0 0 0 0 0 0 0 0 0 0 0 0 0 0 0 0 0 0 0 0 0 0 0 0 0 0 0 0 0 0 0 0 0 0 0 0 0 0 0 0 0 0 0 0 0 0 0 0 0 0 0 0 0 0 0 0 0 0 0 0 0 0 0 0 0 0 0 0 0 0 0 0 0 0 0 0 0 0 0 0 0 0 0 0 0 0 0 0 0 0 0 0 0 0 0 0 0 0 0 0 0 0 0 0 0 0 0 0 0 0 0 0 0 0 0 0 0 0 0 0 0 0 0 0 0 0 0 0 0 0 0 0 0 0 0 0 0 0 0 0 0 0 0 0 0 0 0 0 0 0 0 0 0 0 0 0 0 0 0 0 0 0 0 0 0 0 0 0 0 0 0 0 0 0 0 0 0 0 0 0 0 0 0 0 0 0 0 0 0 0 0 0 0 0 0 0 0 0 0 0 0 0 0 0 0 0 0 0 0 0 0 0 0 0 0 0 0 0 0 0 0 0 0 0 0 0 0 0 0 0 0 0 0 0 0 0 0 0 0 0 0 0 0 0 0 0 0 0 0 0 0 0 0 0 0 0 0 0 0 0 0 0 0 0 0 0 0 0 0 0 0 0 0 0 0 0 0 0 0 0 0 0 0 0 0 0 0 0 0 0 0 0 0 0 0 0 0 0 0 0 0 0 0 0 
        </DataArray>
        <DataArray Name="p" NumberOfComponents="1" type="Float32" format="ascii">