<?xml version="1.0"?>
<VTKFile type="StructuredGrid" version="0.1" byte_order="LittleEndian">
  <StructuredGrid WholeExtent="0 32 0 32 0 1">
    <Piece Extent="0 32 0 32 0 1">
      <PointData>
      </PointData>
      <CellData>
        <DataArray Name="vx" NumberOfComponents="1" type="Float32" format="ascii">
0.0258266 0.0266134 0.0272164 0.0275096 0.0272803 0.0264882 0.0250534 0.0232009 0.0211265 0.0190561 0.0169091 0.0148267 0.0132402 0.0121871 0.0118979 0.0121475 0.0128376 0.0137757 0.0148135 0.015913 0.0169605 0.0178948 0.0187221 0.0194328 0.0200771 0.0206904 0.0212943 0.0219274 0.0226013 0.0233386 0.0241333 0.0249786 0.0265276 0.0276751 0.0286749 0.0292546 0.0290877 0.0280411 0.0260362 0.0236861 0.0213359 0.0192262 0.0167918 0.014071 0.0118884 0.0104542 0.010194 0.0107628 0.0118368 0.0131809 0.0144237 0.015632 0.01673 0.0176762 0.0185641 0.0192593 0.0199254 0.0205256 0.0211365 0.0217862 0.0225098 0.0233414 0.0242936 0.0253656 0.0270677 0.0286937 0.030316 0.0315152 0.0317726 0.0308267 0.0284445 0.0252424 0.021931 0.0190872 0.0156361 0.0118944 0.00921066 0.00769735 0.00786621 0.00913424 0.010864 0.0127849 0.0142611 0.0155812 0.0166846 0.0176158 0.0185485 0.0191486 0.0197969 0.0203324 0.0209087 0.0215324 0.0222663 0.0231561 0.0242436 0.0255419 0.027861 0.0301967 0.0327733 0.0345746 0.0347411 0.0325282 0.0282651 0.0242157 0.0213489 0.0200918 0.0173063 0.0122929 0.00763825 0.00452474 0.00447688 0.00657109 0.00929982 0.0121928 0.0139661 0.0154317 0.0165928 0.0175358 0.018642 0.0191237 0.0197411 0.0201695 0.0206718 0.0212306 0.0219513 0.0228974 0.0241613 0.0257777 0.0278443 0.0308957 0.0345696 0.0371413 0.0371351 0.0339736 0.0291978 0.0246194 0.0213007 0.0206428 0.017689 0.0115601 0.00574398 0.00138825 0.00126693 0.00459834 0.00862093 0.0125763 0.0144312 0.015825 0.016901 0.0179203 0.0191753 0.019251 0.0197228 0.0199284 0.0202777 0.0206858 0.0212954 0.0221789 0.0234872 0.0252878 0.0278766 0.0318862 0.0370623 0.0391119 0.0346915 0.0205231 0.00594771 0.00424868 0.0141992 0.0316676 0.0417514 0.0353763 0.0186795 0.00282027 -0.00232074 0.00145591 0.00716401 0.0126509 0.014226 0.0153037 0.0161041 0.0176545 0.0201367 0.0197691 0.0199468 0.0198204 0.0199143 0.020081 0.0204998 0.0212601 0.0225925 0.0246288 0.0255382 0.0296057 0.0350753 0.0336502 0.0192305 -0.00614286 -0.0227617 -0.013219 0.010417 0.0398132 0.0631737 0.0631254 0.0414479 0.0142767 -4.40374e-05 0.00195621 0.00831991 0.0144125 0.0162906 0.0160263 0.0155779 0.018168 0.0215159 0.0205294 0.0201127 0.0194937 0.0192214 0.019057 0.0191316 0.0195282 0.0205254 0.0222843 0.0218434 0.0261211 0.0340424 0.0324159 0.015686 0.00864836 0.0145632 0.020042 0.0191018 0.0123565 0.0107754 0.0149793 0.0187091 0.00942069 -0.00467402 -0.0006228 0.00958524 0.0176392 0.0230413 0.0235847 0.0245684 0.0246559 0.0231908 0.0218909 0.0205493 0.0194451 0.0186545 0.0180154 0.0175701 0.0173957 0.0177451 0.0189243 0.0146572 0.017753 0.0244094 0.0288863 0.0349871 0.0499463 0.0552362 0.0464548 0.0275827 -0.000809526 -0.0204109 -0.0223738 -0.0134904 -0.00146855 -0.000377588 0.00320679 0.0139948 0.0166128 0.0186819 0.0199304 0.0208843 0.0243265 0.0242624 0.0206011 0.0196764 0.0185503 0.0174913 0.0165127 0.0155005 0.0145422 0.0137986 0.0135709 2.95343e-05 -0.00308984 -0.010919 -0.0136047 -0.00244559 0.0151813 0.0263357 0.0259113 0.0201804 0.0114546 0.00555782 0.0103925 0.0244332 0.0439544 0.0462281 0.0357508 0.0312338 0.0234233 0.0177764 0.0179145 0.0173977 0.0165132 0.0175662 0.0181489 0.0182321 0.0176003 0.0164501 0.0150716 0.0133152 0.011176 0.00831121 0.00503331 -0.0107318 -0.0211749 -0.0387723 -0.0432333 -0.0302445 -0.0147552 0.00131831 0.0104082 0.0155418 0.0190778 0.0252525 0.037771 0.0553251 0.074019 0.086909 0.0778776 0.0555043 0.0408832 0.0293194 0.0244546 0.0214663 0.0167115 0.0162398 0.0185536 0.017988 0.0171381 0.0157282 0.0139739 0.0116747 0.00863793 0.004299 -0.00155229 -0.0183687 -0.0387363 -0.0584962 -0.056529 -0.0423687 -0.0267283 -0.00908137 0.00355743 0.0133974 0.0226094 0.0337641 0.0488771 0.0679749 0.0838715 0.103021 0.0998848 0.0718085 0.0536443 0.0424756 0.0353576 0.031716 0.0270074 0.0216156 0.0207243 0.0185789 0.0171853 0.015461 0.0134549 0.0108286 0.0072026 0.0018578 -0.00621252 -0.0138554 -0.0285072 -0.0472328 -0.0481928 -0.033691 -0.0183071 -0.0022776 0.00800153 0.0148667 0.0212293 0.0299049 0.0431567 0.0620455 0.079276 0.0961234 0.0916414 0.0677447 0.0531503 0.0446934 0.0386609 0.0349902 0.0307048 0.0244442 0.0218441 0.019116 0.017405 0.0155995 0.0136556 0.0112294 0.0079745 0.00328876 -0.00345535 -0.001688 -0.00522448 -0.0142717 -0.018152 -0.0072452 0.00857215 0.0183719 0.0198826 0.0180465 0.0168579 0.0171642 0.0234986 0.0415486 0.0624688 0.0707598 0.0628854 0.0508806 0.0437403 0.0396289 0.036873 0.0354246 0.0311981 0.0252545 0.0221913 0.0191808 0.017536 0.0159321 0.0143885 0.0125694 0.0103185 0.00730808 0.00368189 0.0122417 0.0151554 0.0202688 0.0230997 0.0307343 0.0476875 0.0538183 0.0453395 0.0255188 0.00214271 -0.0144904 -0.0166716 0.00258068 0.0254328 0.0239558 0.0219519 0.0283095 0.0283962 0.0293747 0.0313704 0.0356594 0.0330344 0.0263347 0.022725 0.0190383 0.0175668 0.0162811 0.0153429 0.0143725 0.013338 0.0124269 0.011793 0.0209767 0.0253716 0.0336055 0.0311614 0.0194477 0.0235081 0.0305076 0.0271895 0.0171357 0.00604348 -0.00534135 -0.00952788 -0.000410948 0.00786667 0.000761199 0.00436567 0.0131558 0.0158419 0.0178484 0.0246575 0.0382581 0.0362896 0.0274881 0.02354 0.0187477 0.0175798 0.0166951 0.0164288 0.0162298 0.0162084 0.0167019 0.0178779 0.024699 0.028771 0.0341909 0.0311233 0.0129311 -0.0130137 -0.0236763 -0.00789106 0.0154702 0.0364004 0.0558398 0.0645273 0.042904 0.0137049 0.00122311 0.00094706 0.000966282 0.000894519 0.00668724 0.0188987 0.0467765 0.0478987 0.0342537 0.0282268 0.0195547 0.0175964 0.0167166 0.0170649 0.0175303 0.0182151 0.0194377 0.0212797 0.0275423 0.0317728 0.0370076 0.0383061 0.0298977 0.0114278 -0.0026695 0.000533649 0.0160759 0.035446 0.0487402 0.0485083 0.0252544 0.00247343 -0.00429952 -0.00400387 -0.00436907 0.0108169 0.0260046 0.0258552 0.046453 0.0375202 0.0253901 0.0316072 0.0218121 0.0193039 0.0179723 0.0183951 0.0191191 0.0201687 0.0217648 0.023992 0.0275908 0.030902 0.034794 0.0373083 0.0361636 0.0315232 0.0262662 0.0223759 0.0212885 0.0225738 0.0212527 0.0176307 0.00861016 0.00290695 0.00220471 0.0091321 0.0144512 0.0315015 0.0371293 0.0207282 0.00506944 -0.0318664 -0.0264087 0.0108185 0.0121086 0.0160251 0.0171837 0.0185451 0.0197892 0.0210715 0.0227094 0.024745 0.0277207 0.0302583 0.0330168 0.0349347 0.0346494 0.0316642 0.0272071 0.0232995 0.0210196 0.020052 0.0175238 0.0142444 0.00790898 0.00628732 0.00721656 0.0213752 0.023233 0.0148307 0.0182659 0.0133232 -0.0180798 -0.0367201 -0.0227508 -0.00549987 0.00871529 0.0150784 0.0185506 0.0198919 0.0211026 0.0222278 0.0236782 0.0254423 0.0269637 0.028734 0.0304902 0.031785 0.0319553 0.0307457 0.0282129 0.0248433 0.0215468 0.0187211 0.0153631 0.0128101 0.00972699 0.0107294 0.0121929 0.0267775 0.0197392 -0.000676602 0.011124 0.0152405 -0.0106507 0.0381829 0.0472579 -0.0005289 0.0172258 0.0169187 0.0206928 0.0208231 0.0218542 0.0226739 0.0238938 0.02529 0.0264913 0.0277047 0.0287685 0.029392 0.0291795 0.0279744 0.0258722 0.0233803 0.0210368 0.0189028 0.0165623 0.0143968 0.0125342 0.012345 0.0156361 0.0222977 0.0323188 0.040098 0.0363568 0.0163341 -0.00937537 0.0253949 0.0329908 0.00798649 0.0200619 0.0201323 0.0223387 0.0221727 0.022749 0.0233193 0.0242213 0.0252826 0.0257908 0.0266233 0.0272634 0.0275698 0.0273175 0.0264435 0.0249566 0.0230077 0.0209449 0.0188803 0.0169157 0.01513 0.014129 0.0128912 0.0154456 0.0133776 0.0375011 0.0616857 0.0431052 0.0149813 0.000473043 -0.0146115 -0.00787237 0.0144044 0.0177584 0.0204208 0.0213025 0.0218644 0.022528 0.0232105 0.0240276 0.0248963 0.0253413 0.0258874 0.0262361 0.0262936 0.0259181 0.0250799 0.0238154 0.0222367 0.0205867 0.0188408 0.017177 0.0153368 0.0139892 0.0113094 0.00990349 0.000837214 0.0057155 0.0110712 0.00712832 0.00939484 0.0123617 0.00723032 0.0164608 0.0291686 0.0247944 0.0236373 0.0227352 0.0227772 0.0230504 0.0235128 0.0240847 0.0247179 0.0248784 0.0252574 0.0254428 0.0253852 0.0249959 0.0242637 0.0232127 0.0218853 0.0204555 0.0189121 0.0174903 0.0159572 0.0149218 0.0128978 0.0116724 0.0044791 -0.000779029 -0.0102124 -0.0078187 0.0115355 0.0267827 0.0329384 0.0319859 0.0292421 0.0233764 0.0223335 0.0218208 0.0222826 0.0227388 0.0232941 0.0238488 0.0243956 0.0246014 0.0248588 0.0249351 0.0247961 0.0243791 0.0236809 0.0227258 0.0215446 0.0202688 0.0188707 0.0175482 0.0161012 0.0150221 0.0133636 0.0125721 0.00883645 0.0063878 0.000149582 0.000489563 0.0151878 0.0281243 0.0303478 0.0268946 0.0251335 0.022304 0.0222506 0.0221231 0.0225497 0.0229162 0.023366 0.0238085 0.0242402 0.0244026 0.0246037 0.0246289 0.0244564 0.0240387 0.0233779 0.0224927 0.0214068 0.0202231 0.0189348 0.0177106 0.0164223 0.0154305 0.0141328 0.0135301 0.0114773 0.0105426 0.00772399 0.00876065 0.0167199 0.0237524 0.0254524 0.0236945 0.0228578 0.0215096 0.0217588 0.0218686 0.0223538 0.0227779 0.0232483 0.023687 0.0240887 0.0243459 0.024526 0.0245335 0.0243493 0.0239285 0.0232771 0.0224085 0.0213529 0.0201946 0.0189424 0.0177303 0.0164912 0.0154841 0.0143859 0.013836 0.0127494 0.0126455 0.0118507 0.013011 0.0170208 0.0205854 0.0218743 0.0214554 0.0216199 0.0212914 0.021707 0.0219542 0.0224044 0.0228161 0.0232587 0.0236751 0.024054 0.0243983 0.0246002 0.0246264 0.0244577 0.0240444 0.0233947 0.0225151 0.0214453 0.0202619 0.0189974 0.0177672 0.0165533 0.0155558 0.0145991 0.0140849 0.0134253 0.0135011 0.0134334 0.0145237 0.01687 0.0190184 0.0202376 0.0204768 0.0209176 0.0209933 0.021454 0.0218076 0.0222898 0.022751 0.0232281 0.0236765 0.0240823 0.0245863 0.0248496 0.0249289 0.0247968 0.0243884 0.0237137 0.0227724 0.0216298 0.0203629 0.019026 0.0177112 0.0164353 0.0153809 0.0144786 0.0139921 0.0136192 0.0138164 0.0141154 0.0150898 0.0166603 0.0181633 0.01925 0.0198076 0.0204196 0.0207761 0.0212929 0.0217347 0.0222426 0.0227427 0.0232562 0.0237504 0.0242102 0.0248782 0.0252502 0.025431 0.0253796 0.0250029 0.0243069 0.0232745 0.0219944 0.0205563 0.0190534 0.0175674 0.0161537 0.0150137 0.0141266 0.0136906 0.0135122 0.0138058 0.0142946 0.0152039 0.0164233 0.0176244 0.0186248 0.0193224 0.0199949 0.0204981 0.0210633 0.0215818 0.0221395 0.0227002 0.0232785 0.0238497 0.0243999 0.0253287 0.0258701 0.0262102 0.02627 0.0259118 0.0251312 0.0239022 0.0224053 0.0207611 0.0190914 0.0173931 0.0157284 0.014386 0.0134013 0.0129862 0.0129774 0.0134192 0.0141072 0.0150484 0.0161519 0.0172395 0.0181988 0.0189802 0.0196902 0.0202875 0.020887 0.0214586 0.0220582 0.0226777 0.0233336 0.024009 0.0246918 
        </DataArray>
        <DataArray Name="vy" NumberOfComponents="1" type="Float32" format="ascii">
0.00788658 0.00863899 0.00969311 0.011106 0.0126847 0.0142942 0.0156144 0.0164699 0.0169413 0.0170682 0.0170806 0.016451 0.0154115 0.0139401 0.0124549 0.01114 0.0102355 0.00955343 0.00930738 0.00892875 0.00878975 0.00842233 0.0082689 0.00800724 0.0078383 0.00764522 0.00747694 0.00732306 0.00720491 0.00715507 0.0072126 0.00743968 0.00682814 0.00765629 0.00891163 0.010774 0.0129842 0.015406 0.0175319 0.0190252 0.0197412 0.0199119 0.0197932 0.0185668 0.0167152 0.0143651 0.012106 0.0102727 0.00906977 0.00828794 0.00807711 0.00774259 0.00775857 0.00747884 0.00748558 0.00730728 0.00720163 0.00702721 0.00684369 0.00664163 0.00644866 0.00630651 0.00626583 0.00641615 0.00562372 0.00659267 0.00817454 0.0108229 0.0139101 0.0173484 0.0197265 0.0208922 0.021079 0.0212671 0.0219705 0.0211855 0.0190455 0.0157309 0.0123074 0.0096214 0.00796985 0.00703754 0.00699246 0.00663365 0.00685364 0.00653591 0.00671686 0.00660288 0.00657171 0.00641485 0.00621447 0.00594985 0.00565864 0.00539078 0.00521365 0.00525669 0.00357846 0.00434859 0.00594196 0.00928714 0.013589 0.0188482 0.0232876 0.0260325 0.0264301 0.0267483 0.0274438 0.0251599 0.020878 0.0155676 0.0105246 0.00702293 0.00529262 0.0046452 0.00524968 0.00513345 0.00577864 0.00549429 0.00604649 0.00601759 0.00607249 0.00591231 0.00565971 0.00527958 0.00481298 0.00430837 0.00383468 0.00354911 0.00124606 0.0018656 0.00383211 0.00914497 0.0159703 0.0239083 0.0272684 0.0271291 0.0245785 0.0246085 0.0290246 0.030393 0.0268717 0.0191268 0.010656 0.00498846 0.00273236 0.00244659 0.00412743 0.00399641 0.00507011 0.00422883 0.00522205 0.00536774 0.00554312 0.00542682 0.00515028 0.00465989 0.00399882 0.00320696 0.00235958 0.00163953 -0.00216339 -0.0023458 -0.000511109 0.00691312 0.0166656 0.026941 0.0328562 0.0349462 0.0313344 0.0313783 0.0375092 0.0374508 0.0307575 0.0198939 0.00729987 -0.000828978 -0.00279543 -0.00176287 0.00193135 0.00240596 0.00377363 0.00310504 0.00493538 0.00538918 0.00552256 0.00535387 0.00494552 0.0042656 0.00331256 0.00210297 0.000668121 -0.000828154 -0.00616303 -0.0072678 -0.0038781 0.0115942 0.0347478 0.0534069 0.0416633 0.017692 -0.00207603 -0.00273431 0.023718 0.0527067 0.0599631 0.040421 0.0124721 -0.00474717 -0.00790224 -0.0046438 0.00183893 0.00277157 0.00289701 -0.000800902 0.0032394 0.00539595 0.00555643 0.00538751 0.00489187 0.00405169 0.00281263 0.00112195 -0.00103423 -0.00361431 -0.00940381 -0.0112805 -0.00407509 0.024687 0.058127 0.0676475 0.0377846 0.00220038 -0.023483 -0.0231318 0.0140212 0.0574766 0.0773043 0.0626136 0.0221341 -0.00944826 -0.0147286 -0.0106148 2.17069e-05 0.00251659 0.00180275 -0.00133267 0.00255836 0.00657593 0.0066426 0.00619597 0.0054133 0.00436628 0.00285011 0.000743904 -0.00207769 -0.00568611 -0.0140266 -0.0204345 -0.012585 0.02569 0.0562841 0.0564906 0.0345027 0.0169906 0.00751499 0.0081945 0.0251664 0.0497004 0.0675006 0.0613823 0.0196029 -0.0226777 -0.026278 -0.0186499 -0.00343045 0.00116668 0.000842172 -0.00136762 0.00617603 0.00904226 0.00825811 0.00738732 0.00636454 0.00512793 0.00340511 0.000885135 -0.00270776 -0.00796946 -0.0129862 -0.0208538 -0.0133664 0.019752 0.0389591 0.04484 0.0375424 0.0273095 0.0214341 0.0226756 0.0331979 0.0460349 0.0542165 0.0502695 0.0238367 -0.0230604 -0.0271367 -0.0152099 -0.00305986 0.00028171 -0.000376178 -0.00505624 0.00787443 0.00905065 0.00858779 0.00809606 0.00739758 0.00635308 0.0048544 0.00254365 -0.000916364 -0.00622954 -0.00551132 -0.0104255 -0.00136963 0.0162337 0.0242105 0.0287825 0.0271389 0.0235582 0.0216256 0.0225316 0.0273268 0.0328909 0.0354429 0.0368128 0.0274172 -0.00763643 -0.0143242 -0.00407262 0.00200349 0.00219828 0.00191239 -0.00314425 0.00555549 0.0079093 0.0089455 0.00916834 0.00888173 0.00824303 0.00727201 0.0057744 0.00341654 -8.87509e-05 0.00807132 0.00736438 0.00854893 0.00980979 0.0107338 0.0123644 0.0128591 0.0128221 0.0128077 0.0130364 0.0145351 0.0162331 0.0173872 0.0195131 0.0185594 0.0100931 0.00783858 0.0112544 0.0120795 0.00805364 0.00616011 0.00194985 0.00559566 0.0085558 0.010036 0.0105412 0.010589 0.0104663 0.0102752 0.0100235 0.00963469 0.00911165 0.0246431 0.0293391 0.016956 0.000332419 -0.00425858 -0.00434191 -0.002083 0.000885857 0.00220612 0.00177078 0.000906844 -0.000590478 6.9081e-05 0.00299807 0.0085031 0.0264691 0.0302406 0.0258694 0.021016 0.0134865 0.0099626 0.00795964 0.00983794 0.0112936 0.0120264 0.0123398 0.01251 0.0128327 0.013444 0.0145636 0.0164827 0.0195938 0.0334988 0.0413274 0.0281157 -0.00463485 -0.0191704 -0.019794 -0.0129918 -0.00441254 -0.000432881 -0.0019938 -0.00737256 -0.0153349 -0.0197488 -0.0137024 0.00258702 0.0416345 0.0448389 0.0346168 0.0260249 0.0171953 0.0136392 0.0134591 0.013744 0.014534 0.0142888 0.014261 0.0143404 0.0148985 0.0160106 0.0180147 0.0212319 0.0264289 0.0346075 0.0409437 0.030635 -0.00890522 -0.0329933 -0.0280461 -0.0115227 0.0012455 0.00545654 0.00275214 -0.00538929 -0.0229461 -0.0370214 -0.0259386 0.00718586 0.0471505 0.0474748 0.037293 0.0282979 0.0182453 0.0155817 0.0190985 0.0178595 0.0178226 0.0162305 0.0156503 0.0155252 0.0161704 0.0174992 0.0197962 0.0232583 0.0285265 0.030584 0.032608 0.0233483 -0.0106871 -0.0435315 -0.0459819 -0.0116402 0.0230597 0.0392317 0.0347289 0.0105654 -0.0334282 -0.0652384 -0.0375404 0.00959421 0.037813 0.0405291 0.0325648 0.0234482 0.0107464 0.010937 0.0237628 0.0229744 0.0227108 0.0191645 0.0173725 0.0165817 0.0169259 0.018063 0.0200165 0.0228527 0.0266343 0.0268561 0.0275765 0.0227241 0.00240047 -0.0255384 -0.0382817 -0.0137606 0.0149932 0.0305285 0.0287513 0.0101433 -0.0264775 -0.0538477 -0.0259703 0.0124647 0.0314571 0.0374852 0.0312793 0.0218761 -0.00134825 0.0041207 0.0315375 0.0284604 0.0274183 0.0212592 0.0177946 0.0163969 0.0165892 0.0176404 0.0193062 0.021539 0.0241989 0.0229377 0.0231125 0.0209577 0.0119347 0.000263167 -0.0100468 -0.0142422 -0.0135313 -0.00804987 -0.00839056 -0.0136742 -0.0174914 -0.0153604 0.00220447 0.0222442 0.0354741 0.0414264 0.0197861 0.00921869 -0.0313249 -0.0196303 0.0374357 0.0405103 0.0395861 0.0293213 0.0209691 0.0171739 0.0163207 0.0169665 0.0181633 0.0197355 0.0213732 0.0190805 0.0183928 0.0162511 0.0101448 0.00216665 -0.00533094 -0.00733172 -0.00636101 -0.00352854 -0.00363686 -0.00602359 -0.00823674 -0.00714362 0.00546625 0.0213281 0.0311267 0.0284582 -0.00386248 0.0137417 -0.0261001 -0.00729366 0.0580241 0.0290432 0.0333955 0.0318923 0.021845 0.016923 0.0153635 0.0157674 0.0166517 0.0176931 0.018539 0.0165611 0.0157892 0.01415 0.0104991 0.005733 0.000246034 -0.00415375 -0.00678484 -0.00683996 -0.00686632 -0.00642268 -0.00388674 -0.000141767 0.00779013 0.0162394 0.0222282 0.0194127 -0.00462579 0.0216715 -0.00043534 0.030892 0.0762381 -0.0121832 0.00548661 0.0229407 0.0166804 0.0147503 0.0138702 0.0145251 0.0152724 0.0160121 0.0164524 0.0143209 0.0133506 0.0117251 0.00890993 0.00556903 0.00208353 -0.000175992 -0.0012129 -0.00115765 -0.00116645 -0.00129327 -0.000141946 0.00110385 0.00601209 0.00691177 0.0153329 0.0336204 0.00599993 0.00793751 0.0116051 0.0368949 0.0619973 0.00222492 0.00365774 0.0128352 0.0119849 0.0122879 0.0126671 0.0134189 0.0140351 0.0144755 0.0145839 0.0130106 0.0121898 0.0109077 0.00896197 0.00663912 0.00415278 0.0020277 0.000574155 2.17094e-05 1.50609e-05 0.000373377 0.00179264 0.0024049 0.00442618 0.000790025 0.0118703 0.0458212 0.0102131 0.00145666 0.0255497 0.0170762 0.0110479 0.0381471 0.0223457 0.00800529 0.0110016 0.011397 0.0124035 0.0128181 0.013207 0.0133968 0.0133554 0.0119222 0.0111783 0.0101058 0.00864782 0.00700734 0.00537425 0.00407694 0.00325693 0.00288854 0.00281006 0.00284247 0.00333721 0.003111 0.00238939 -0.00304988 -0.00278518 0.015593 0.00650275 0.0271079 0.0570543 0.0288077 0.0125655 0.0288646 0.0121757 0.00295125 0.00841918 0.0105207 0.0118689 0.0122336 0.0124535 0.0124845 0.0123274 0.01126 0.010693 0.00989623 0.00887696 0.00771901 0.00656363 0.00554425 0.00481326 0.00441169 0.00432194 0.00443396 0.00481937 0.00483546 0.00395547 0.000159935 -0.00682169 -0.00457157 0.00541514 0.0469216 0.0681936 0.043866 0.0202377 0.00604445 -0.00166896 0.00224758 0.00786174 0.0102845 0.0113499 0.0116382 0.0117782 0.01176 0.0116044 0.0107523 0.0103125 0.00972398 0.00901249 0.00822858 0.00747605 0.00683094 0.00638198 0.00613169 0.00606119 0.00615798 0.00640643 0.00675653 0.00669746 0.0062246 0.00286251 0.00410638 0.0055723 0.0339979 0.0467958 0.0333846 0.0106147 0.00660416 0.00495501 0.00809855 0.010299 0.0111129 0.0113559 0.0113581 0.0113253 0.0112292 0.011052 0.0104038 0.0101236 0.00975059 0.00931058 0.00882331 0.00835501 0.00793894 0.00763432 0.00745843 0.00740028 0.00747822 0.00761207 0.00789527 0.00788386 0.00818942 0.00686698 0.00890847 0.0103246 0.0257441 0.0314061 0.0246101 0.0124269 0.00912709 0.0075006 0.00911575 0.00997755 0.0105075 0.0106866 0.0107514 0.0107607 0.0107108 0.0105993 0.0101311 0.00998583 0.00979848 0.00958447 0.00935206 0.00913424 0.00894859 0.00881655 0.00875605 0.00874198 0.00882736 0.0089232 0.00920764 0.0093267 0.00997122 0.00970254 0.0116582 0.012073 0.0193262 0.020879 0.0184091 0.0121796 0.0111952 0.00991116 0.0104414 0.0104415 0.0105217 0.0104651 0.0104229 0.0103741 0.0103172 0.0102412 0.00989466 0.00989349 0.00989113 0.00989099 0.00989247 0.00989677 0.00990934 0.0099191 0.00994756 0.00995752 0.0100097 0.0100139 0.0101399 0.0101305 0.0105591 0.010496 0.0119844 0.0123855 0.0162517 0.0165318 0.0156478 0.0122313 0.0113197 0.0100848 0.0101363 0.00995294 0.00997605 0.00993391 0.00992138 0.00990848 0.0099012 0.00989784 0.00966365 0.00980519 0.00998734 0.0102006 0.0104348 0.0106604 0.0108714 0.0110247 0.0111488 0.0111931 0.0112323 0.0111736 0.0111766 0.0110695 0.0112629 0.0111954 0.0120464 0.012171 0.014025 0.0139029 0.0135258 0.0116391 0.0111123 0.0102189 0.010059 0.00977507 0.00967008 0.00956243 0.00950971 0.00948932 0.0095073 0.00956476 0.00937397 0.00965618 0.010024 0.0104606 0.0109453 0.0114185 0.011857 0.0121787 0.0124074 0.0124733 0.0124632 0.0122728 0.0120645 0.0117319 0.0115935 0.0113369 0.0116744 0.0116205 0.0125009 0.0122515 0.0120349 0.0108884 0.0104487 0.00976549 0.00954407 0.00927901 0.00915611 0.00905393 0.00900594 0.0090031 0.00905631 0.00917624 0.00903797 0.00947894 0.0100588 0.01076 0.0115313 0.0122822 0.0129477 0.0134147 0.0137277 0.0138146 0.0137932 0.0134946 0.0130874 0.0125013 0.0120118 0.0114964 0.0113708 0.0110984 0.0113606 0.0110508 0.0108488 0.0101316 0.0097975 0.00930663 0.00906869 0.00881843 0.00866282 0.00854238 0.00847851 0.00847745 0.00855608 0.00873618 0.00850729 0.0090843 0.00987087 0.0108694 0.0120006 0.013146 0.0141819 0.0149336 0.0154007 0.0155093 0.0154044 0.0148476 0.0140798 0.0130761 0.0121419 0.0112833 0.0107768 0.0103139 0.010257 0.00992185 0.00974595 0.00925923 0.00901545 0.00865924 0.00845314 0.00823833 0.00808031 0.00795096 0.00786833 0.00785208 0.00792845 0.00813575 
        </DataArray>
        <DataArray Name="vz" NumberOfComponents="1" type="Float32" format="ascii">
0 0 0 0 0 0 0 0 0 0 0 0 0 0 0 0 0 0 0 0 0 0 0 0 0 0 0 0 0 0 0 0 0 0 0 0 0 0 0 0 0 0 0 0 0 0 0 0 0 0 0 0 0 0 0 0 0 0 0 0 0 0 0 0 0 0 0 0 0 0 0 0 0 0 0 0 0 0 0 0 0 0 0 0 0 0 0 0 0 0 0 0 0 0 0 0 0 0 0 0 0 0 0 0 0 0 0 0 0 0 0 0 0 0 0 0 0 0 0 0 0 0 0 0 0 0 0 0 0 0 0 0 0 0 0 0 0 0 0 0 0 0 0 0 0 0 0 0 0 0 0 0 0 0 0 0 0 0 0 0 0 0 0 0 0 0 0 0 0 0 0 0 0 0 0 0 0 0 0 0 0 0 0 0 0 0 0 0 0 0 0 0 0 0 0 0 0 0 0 0 0 0 0 0 0 0 0 0 0 0 0 0 0 0 0 0 0 0 0 0 0 0 0 0 0 0 0 0 0 0 0 0 0 0 0 0 0 0 0 0 0 0 0 0 0 0 0 0 0 0 0 0 0 0 0 0 0 0 0 0 0 0 0 0 0 0 0 0 0 0 0 0 0 0 0 0 0 0 0 0 0 0 0 0 0 0 0 0 0 0 0 0 0 0 0 0 0 0 0 0 0 0 0 0 0 0 0 0 0 0 0 0 0 0 0 0 0 0 0 0 0 0 0 0 0 0 0 0 0 0 0 0 0 0 0 0 0 0 0 0 0 0 0 0 0 0 0 0 0 0 0 0 0 0 0 0 0 0 0 0 0 0 0 0 0 0 0 0 0 0 0 0 0 0 0 0 0 0 0 0 0 0 0 0 0 0 0 0 0 0 0 0 0 0 0 0 0 0 0 0 0 0 0 0 0 0 0 0 0 0 0 0 0 0 0 0 0 0 0 0 0 0 0 0 0 0 0 0 0 0 0 0 0 0 0 0 0 0 0 0 0 0 0 0 0 0 0 0 0 0 0 0 0 0 0 0 0 0 0 0 0 0 0 0 0 0 0 0 0 0 0 0 0 0 0 0 0 0 0 0 0 0 0 0 0 0 0 0 0 0 0 0 0 0 0 0 0 0 0 0 0 0 0 0 0 0 0 0 0 0 0 0 0 0 0 0 0 0 0 0 0 0 0 0 0 0 0 0 0 0 0 0 0 0 0 0 0 0 0 0 0 0 0 0 0 0 0 0 0 0 0 0 0 0 0 0 0 0 0 0 0 0 0 0 0 0 0 0 0 0 0 0 0 0 0 0 0 0 0 0 0 0 0 0 0 0 0 0 0 0 0 0 0 0 0 0 0 0 0 0 0 0 0 0 0 0 0 0 0 0 0 0 0 0 0 0 0 0 0 0 0 0 0 0 0 0 0 0 0 0 0 0 0 0 0 0 0 0 0 0 0 0 0 0 0 0 0 0 0 0 0 0 0 0 0 0 0 0 0 0 0 0 0 0 0 0 0 0 0 0 0 0 0 0 0 0 0 0 0 0 0 0 0 0 0 0 0 0 0 0 0 0 0 0 0 0 0 0 0 0 0 0 0 0 0 0 0 0 0 0 0 0 0 0 0 0 0 0 0 0 0 0 0 0 0 0 0 0 0 0 0 0 0 0 0 0 0 0 0 0 0 0 0 0 0 0 0 0 0 0 0 0 0 0 0 0 0 0 0 0 0 0 0 0 0 0 0 0 0 0 0 0 0 0 0 0 0 0 0 0 0 0 0 0 0 0 0 0 0 0 0 0 0 0 0 0 0 0 0 0 0 0 0 0 0 0 0 0 0 0 0 0 0 0 0 0 0 0 0 0 0 0 0 0 0 0 0 0 0 0 0 0 0 0 0 0 0 0 0 0 0 0 0 0 0 0 0 0 0 0 0 0 0 0 0 0 0 0 0 0 0 0 0 0 0 0 0 0 0 0 0 0 0 0 0 0 0 0 0 0 0 0 0 0 0 0 0 0 0 0 0 0 0 0 0 0 0 0 0 0 0 0 0 0 0 0 0 0 0 0 0 0 0 0 0 0 0 0 0 0 0 0 0 0 0 0 0 0 0 0 0 0 0 0 0 0 0 0 0 0 0 0 0 0 0 0 0 0 0 0 0 0 0 0 0 0 0 0 0 0 0 0 0 0 0 0 0 0 0 0 0 0 0 0 0 0 0 0 0 0 0 0 0 0 0 0 0 0 0 0 0 0 0 0 0 0 0 0 0 0 0 0 0 0 0 0 0 0 0 0 0 0 0 0 0 0 0 0 0 0 0 0 0 0 
        </DataArray>
        <DataArray Name="p" NumberOfComponents="1" type="Float32" format="ascii">