<?xml version="1.0"?>
<VTKFile type="StructuredGrid" version="0.1" byte_order="LittleEndian">
  <StructuredGrid WholeExtent="0 32 0 32 0 1">
    <Piece Extent="0 32 0 32 0 1">
      <PointData>
      </PointData>
      <CellData>
        <DataArray Name="vx" NumberOfComponents="1" type="Float32" format="ascii">
0.0243164 0.0249412 0.0254438 0.0257161 0.025638 0.025183 0.0243034 0.0230959 0.0215716 0.019989 0.0183579 0.0168198 0.0156598 0.0148435 0.0145399 0.0146048 0.0149681 0.0154625 0.0159657 0.0164821 0.0169837 0.0175287 0.0181025 0.0186624 0.0192342 0.0198064 0.0203825 0.0209788 0.0215953 0.0222443 0.0229255 0.0236204 0.0248448 0.0257071 0.0264672 0.0269033 0.0268344 0.0262039 0.0250335 0.0236113 0.0218772 0.020179 0.0183301 0.0163994 0.0148158 0.0136764 0.0132663 0.0135059 0.0141131 0.0149042 0.0155786 0.0161673 0.0167106 0.0173059 0.0179774 0.0185482 0.0191641 0.0197212 0.0203079 0.0209058 0.0215586 0.0222713 0.0230697 0.0239234 0.025261 0.0264625 0.0276585 0.0285093 0.0287086 0.0281913 0.0269531 0.025108 0.0225956 0.0201236 0.0174134 0.0147513 0.0128529 0.0116656 0.0114338 0.0121747 0.0132959 0.0145496 0.0154433 0.0160408 0.0165525 0.0171784 0.0179202 0.0184624 0.019094 0.019601 0.0201683 0.0207367 0.0213967 0.0221471 0.0230495 0.0240665 0.0258824 0.0275414 0.029286 0.0303632 0.0301952 0.028618 0.0265305 0.0248089 0.0226016 0.0207258 0.018568 0.0155876 0.0125338 0.0100408 0.00919007 0.0103087 0.0121208 0.0140522 0.0152005 0.0156543 0.0160287 0.016824 0.0178456 0.0184059 0.0190729 0.0195206 0.0200488 0.020566 0.0212201 0.0220103 0.0230498 0.0242918 0.026 0.0281651 0.0304721 0.0315845 0.0303666 0.0275703 0.0257586 0.0248947 0.0229368 0.0214045 0.019523 0.0164077 0.0129477 0.0092367 0.00718176 0.00870875 0.0115006 0.0142779 0.0156791 0.0156497 0.0157651 0.0167691 0.0179826 0.018507 0.0190999 0.0193974 0.0198102 0.0202031 0.0207761 0.0215271 0.0226263 0.0240342 0.0260318 0.028783 0.0314582 0.0310954 0.0247496 0.0125443 0.00568151 0.0112755 0.0192853 0.0274098 0.0359267 0.0371118 0.0277079 0.0145572 0.0063685 0.00682638 0.0106326 0.0144292 0.0160935 0.0144385 0.013467 0.0159428 0.0185373 0.0190706 0.0194123 0.019438 0.0196265 0.0198179 0.0202379 0.0208956 0.0220198 0.0236084 0.0248338 0.0278817 0.0298603 0.0243193 0.00518207 -0.0168635 -0.0177472 0.00112627 0.0180655 0.031058 0.0480177 0.0591931 0.0532132 0.03163 0.0105864 0.00656361 0.0107743 0.0156761 0.0182906 0.0150884 0.0136465 0.016011 0.0184616 0.0198622 0.019839 0.0194335 0.0192648 0.0191486 0.0192969 0.019724 0.0206861 0.0222585 0.0220084 0.0254642 0.0264655 0.0194986 -0.00135084 -0.0112129 0.00344769 0.0119052 0.0146282 0.0197148 0.0219077 0.0288716 0.040138 0.0324408 0.0100863 0.00495628 0.0116187 0.0189716 0.0239735 0.0256001 0.0261968 0.0232785 0.0221265 0.0218075 0.0205479 0.0195482 0.0188607 0.0183393 0.0180564 0.0180527 0.0185217 0.0197501 0.0180318 0.0234492 0.0266371 0.0309002 0.0460266 0.0597228 0.0532058 0.0347865 0.0213036 0.00800003 -0.00623696 -0.0166148 -0.0196133 -0.00444167 0.00201849 0.000689868 0.0104113 0.0160881 0.0199482 0.0231319 0.0251268 0.0323825 0.0322499 0.0237416 0.0216471 0.0194585 0.0182782 0.0172889 0.016521 0.0159763 0.0157425 0.0163896 0.00850256 0.0121027 0.016591 0.0163765 0.0263963 0.040896 0.0368749 0.0257122 0.0189081 0.0127876 0.00551055 -0.000211565 -0.000321727 0.0118259 0.0208007 0.0211638 0.0215245 0.0186969 0.0158388 0.0167412 0.017836 0.0235716 0.0239934 0.0199711 0.0193539 0.0180925 0.0169991 0.015834 0.0144889 0.0130346 0.0112125 0.0098132 -0.00529922 -0.0156228 -0.0257439 -0.0234165 -0.0100384 0.00423223 0.011705 0.013509 0.0158114 0.0180546 0.021023 0.0259947 0.0360638 0.0500251 0.0661137 0.0654187 0.0477185 0.035552 0.0240993 0.0178091 0.0177319 0.0140215 0.0122212 0.0166861 0.0168452 0.0167797 0.0158022 0.0145888 0.012815 0.0104761 0.00696262 0.00210881 -0.0168329 -0.0423698 -0.0571901 -0.0438287 -0.0262138 -0.0108725 0.000225309 0.00683297 0.0137572 0.0208323 0.0289815 0.0380437 0.05156 0.0663836 0.0894162 0.0958111 0.0730365 0.0536048 0.0406657 0.0356688 0.0309589 0.0211171 0.0174027 0.0184935 0.0170927 0.0165406 0.0152448 0.0138263 0.0116648 0.00852122 0.00361823 -0.00469692 -0.00932408 -0.0239016 -0.0353331 -0.029821 -0.0152972 -0.00182386 0.00644856 0.0101998 0.0147223 0.0200913 0.0264446 0.0332253 0.0455422 0.0619215 0.0856545 0.0913353 0.0702946 0.0543957 0.0443796 0.0390854 0.0341633 0.0261963 0.0209419 0.0192436 0.0170819 0.0163329 0.0150713 0.0138687 0.012035 0.00948871 0.00557434 -0.000425572 0.0049658 0.00666366 0.00615517 0.00674176 0.018814 0.029457 0.0267585 0.0199691 0.0170278 0.0165986 0.0161538 0.0143714 0.0191 0.0373481 0.0577164 0.0606563 0.0502205 0.0452963 0.040817 0.0366678 0.0331428 0.0264428 0.0213815 0.0191823 0.0168094 0.0162292 0.0151981 0.0144467 0.013232 0.011775 0.00968615 0.0076682 0.0156363 0.0219267 0.0250265 0.0324366 0.048472 0.0602355 0.0526057 0.0330603 0.0187097 0.00902948 -0.00226467 -0.0170333 -0.0194737 -0.000952556 0.00911785 0.0163967 0.0253989 0.030732 0.0329588 0.0314766 0.0316296 0.0262249 0.0215291 0.0190825 0.0163108 0.016041 0.0153422 0.0151995 0.0147475 0.0143613 0.0140028 0.0144625 0.0206714 0.0241024 0.0259353 0.0152035 -0.000658968 0.00302746 0.0112847 0.0067668 0.00723008 0.0159059 0.0179022 0.0102954 0.0186824 0.0271691 0.0116697 0.00881419 0.0174061 0.0243982 0.0279047 0.0271304 0.0308039 0.0248146 0.0209548 0.0190962 0.0158057 0.0160612 0.0157273 0.0161954 0.0163438 0.0166637 0.0172404 0.0184757 0.0236729 0.0265299 0.0283526 0.0186091 -0.00295737 -0.0216374 -0.0153068 0.00792008 0.0216903 0.0263434 0.0353055 0.0545928 0.0570449 0.0345406 0.0123679 0.00782669 0.00906934 0.0210497 0.0286357 0.0253813 0.0305551 0.0246747 0.0243266 0.0227977 0.0170051 0.0166177 0.0160889 0.0169619 0.017568 0.0183733 0.0194879 0.0211117 0.0255696 0.0282786 0.0307353 0.0281985 0.0176262 0.00190109 -0.00173639 0.0107494 0.0214231 0.0276977 0.0353939 0.0460339 0.0382004 0.0177836 0.00449487 0.00451439 0.00633605 0.0349268 0.045333 0.0252106 0.0210332 0.00572947 0.0112112 0.0237073 0.0189791 0.0187181 0.0178065 0.0185696 0.0192375 0.0201507 0.0214057 0.0230689 0.0257535 0.0279517 0.0302968 0.0307526 0.02838 0.0244614 0.0226238 0.0229135 0.0222339 0.0214364 0.0197253 0.0194149 0.0142938 0.00806072 0.00405944 0.00736414 0.0133784 0.0259209 0.0295853 0.0177586 0.0272022 -0.00674238 -0.0196117 0.0135514 0.0144455 0.018124 0.0185552 0.0195165 0.0203021 0.0211566 0.0223173 0.0237345 0.025961 0.0275956 0.0293204 0.0301506 0.0294064 0.0271174 0.0250733 0.0236623 0.0212641 0.0187801 0.0157764 0.0142769 0.00995938 0.00647839 0.00445937 0.00918117 0.00791992 -0.0172302 -0.0108545 0.00563855 0.00551698 0.000354604 7.91668e-06 0.00417213 0.0146016 0.0182787 0.0207637 0.0212437 0.021893 0.0224103 0.0233178 0.0244214 0.0254786 0.0265983 0.0277583 0.028517 0.0285631 0.0277774 0.0263333 0.0241542 0.0210417 0.0179137 0.0142887 0.0118976 0.00866025 0.00711539 0.00483514 0.00790406 -0.0081655 -0.0495456 -0.0318408 0.00471816 0.00460892 0.047404 0.0548552 0.0151727 0.0244789 0.0219147 0.0240768 0.0228755 0.023058 0.023062 0.0236588 0.0244092 0.0252164 0.0259224 0.0265667 0.0268735 0.0266394 0.0257564 0.0243638 0.0226014 0.0203706 0.0181015 0.0155695 0.0134835 0.0112058 0.00943104 0.0091346 0.00988039 0.00895879 -0.00869214 -0.00403413 0.0128341 0.0131481 0.0552902 0.0562042 0.0241047 0.0280331 0.0248051 0.0255399 0.0240495 0.0238682 0.0236762 0.0240189 0.0245091 0.0246797 0.0251502 0.0255304 0.0256755 0.0254639 0.0248198 0.023739 0.0222327 0.0203586 0.0183949 0.0164415 0.0146915 0.0136089 0.0118645 0.0133801 0.011625 0.0315041 0.0438514 0.0306923 0.0224367 0.0271583 0.0213609 0.0137939 0.0220236 0.0244685 0.0242661 0.0241477 0.0235127 0.0234514 0.0234681 0.0237811 0.0241782 0.0243505 0.0246304 0.0247977 0.0247569 0.0244277 0.0237695 0.0228091 0.021579 0.0201617 0.0186319 0.0171953 0.015653 0.0148048 0.0128006 0.0129172 0.00927057 0.0203338 0.0457491 0.0357125 0.0206015 0.0176399 0.00318025 0.0127144 0.0265793 0.0259374 0.0248145 0.0239414 0.0235361 0.0234578 0.0235192 0.0237383 0.0240238 0.0239269 0.0241332 0.0242177 0.0241294 0.0238163 0.0232523 0.0224526 0.0214213 0.0202625 0.0190012 0.0179144 0.0167316 0.0163013 0.0149209 0.0148881 0.0110081 0.0102627 0.015743 0.0154036 0.0111627 0.00458679 0.00848654 0.0223259 0.0256672 0.0233317 0.0226312 0.0222362 0.0225034 0.0227326 0.0230405 0.0233435 0.02365 0.0236809 0.0238244 0.0238442 0.0237073 0.0233775 0.0228419 0.0221222 0.0212263 0.0202524 0.0191836 0.0182755 0.0172588 0.0168987 0.0159572 0.0163501 0.0145308 0.0137113 0.0127482 0.0113412 0.0134768 0.0146268 0.0175985 0.0213701 0.0219466 0.0209268 0.0214183 0.0216382 0.0221961 0.0225285 0.0228881 0.0231824 0.0234599 0.0234502 0.0235903 0.023603 0.0234697 0.0231633 0.0226782 0.0220327 0.0212347 0.0203727 0.0194343 0.0186399 0.0177768 0.0174325 0.0167184 0.0170053 0.0160497 0.0157664 0.0147969 0.0138172 0.015994 0.0176864 0.0187698 0.0197529 0.0200451 0.0198361 0.0205962 0.0210163 0.0216779 0.0221125 0.0225578 0.02291 0.0232205 0.0233646 0.0235089 0.0235247 0.0233972 0.0231011 0.0226366 0.0220189 0.021264 0.0204454 0.0195601 0.0187808 0.0179617 0.017534 0.0169171 0.017056 0.0165755 0.0167369 0.0163399 0.0159779 0.0168938 0.0175618 0.0180887 0.0185347 0.0191829 0.0194909 0.0203508 0.0208711 0.021524 0.0219839 0.0224399 0.0228076 0.0231282 0.0233451 0.0235279 0.0235788 0.0234834 0.0232134 0.0227712 0.022165 0.0214182 0.0205914 0.0197047 0.0188952 0.0180796 0.0175657 0.0169743 0.0169169 0.0165431 0.0166693 0.0165142 0.0165055 0.017073 0.0175036 0.0180114 0.0184197 0.0190417 0.0194336 0.0201674 0.020683 0.0213056 0.0217991 0.0222887 0.0227029 0.0230668 0.0234552 0.023692 0.0237915 0.0237317 0.0234757 0.0230288 0.0223937 0.021612 0.0207304 0.0197941 0.018903 0.0180253 0.017393 0.0167853 0.0165997 0.0163268 0.0164486 0.016461 0.0166089 0.0170282 0.017404 0.0178837 0.0183111 0.0189339 0.0194114 0.0200887 0.020625 0.0212261 0.0217428 0.0222548 0.0227107 0.0231221 0.0236389 0.0239651 0.0241531 0.024168 0.0239561 0.0235174 0.0228392 0.0219721 0.0209527 0.0198724 0.0188156 0.0178077 0.0170482 0.0164075 0.016148 0.0159528 0.0160814 0.0162167 0.0164806 0.0168986 0.0173115 0.0178124 0.0182795 0.0188612 0.0193633 0.0199824 0.0205279 0.0211204 0.021669 0.0222198 0.0227368 0.0232202 0.0239612 0.0244068 0.0247086 0.0247989 0.0246015 0.0241144 0.0233263 0.0223411 0.0211753 0.0199646 0.0187368 0.0175393 0.0165862 0.0158312 0.0154916 0.0153743 0.0155669 0.0158531 0.0162265 0.016683 0.017144 0.0176661 0.01819 0.018766 0.0193118 0.0199089 0.0204744 0.0210694 0.0216534 0.0222518 0.0228456 0.0234243 
        </DataArray>
        <DataArray Name="vy" NumberOfComponents="1" type="Float32" format="ascii">
0.00879965 0.00936182 0.0101015 0.0111239 0.0122171 0.0133777 0.0143403 0.0151358 0.0156615 0.0158661 0.0158822 0.015442 0.0147205 0.0136466 0.0125478 0.0114092 0.010673 0.00995073 0.00972193 0.00930353 0.00920866 0.0088739 0.00885012 0.00866257 0.00863238 0.00851512 0.0084446 0.00834866 0.008281 0.00825385 0.00830041 0.00847794 0.00795644 0.00859338 0.00948404 0.0108357 0.0123669 0.0140866 0.0156431 0.0170182 0.01786 0.0181451 0.0180146 0.0171065 0.0157543 0.0140728 0.0124092 0.0108761 0.00994211 0.00918899 0.00902777 0.00867712 0.00860187 0.00825981 0.00825722 0.00807886 0.00805638 0.00793839 0.00785079 0.00772424 0.00760874 0.00752551 0.00751123 0.00764892 0.00702265 0.00777802 0.00890061 0.0107682 0.0128564 0.0151293 0.0167709 0.0181408 0.0189663 0.019308 0.0194959 0.0188517 0.0173916 0.0151871 0.0127714 0.0105953 0.00936755 0.0085415 0.00853369 0.00823269 0.00809476 0.00759892 0.0076178 0.00745261 0.00746059 0.00735459 0.00725769 0.00709486 0.00691751 0.00675579 0.0066555 0.00673415 0.00554344 0.00622916 0.0074743 0.00986687 0.0127675 0.015918 0.0188038 0.0215265 0.0229796 0.023506 0.0234804 0.0217722 0.0188382 0.0155186 0.0119503 0.0089303 0.00756233 0.00693808 0.00747789 0.00752813 0.00740622 0.00692629 0.00699108 0.00688997 0.00694511 0.00685253 0.00672731 0.00649117 0.00619318 0.00587011 0.00557209 0.00544524 0.00372384 0.00432288 0.00600507 0.00968923 0.0144305 0.0187064 0.0203247 0.0218391 0.0232472 0.0236161 0.0243618 0.0247728 0.0228428 0.0184227 0.0125168 0.00757139 0.00573631 0.00549854 0.00699683 0.00762515 0.00678666 0.00573948 0.00601125 0.00618361 0.00636509 0.00635108 0.00622171 0.00591343 0.00547038 0.00492976 0.0043546 0.00390553 0.00152315 0.00190881 0.00448452 0.0103639 0.0173875 0.0204001 0.0213459 0.0242283 0.0260587 0.0266504 0.028191 0.028371 0.0257552 0.0217002 0.0129037 0.00468216 0.00217127 0.00268345 0.00598809 0.00751196 0.00606749 0.00519063 0.00517895 0.0057802 0.00607103 0.00610917 0.00593566 0.00551764 0.00487319 0.00403931 0.00307848 0.00214209 -0.00162046 -0.00163731 0.00349726 0.0150497 0.0324701 0.0379392 0.0216851 0.00772169 0.00986421 0.0100341 0.0139946 0.0332321 0.0455122 0.0391105 0.0197804 0.0027551 -0.00198603 -2.08833e-05 0.00698225 0.0113106 0.00371517 0.000696377 0.00270876 0.00540346 0.00605506 0.0061525 0.00587301 0.00529042 0.00437407 0.00310913 0.00155643 -0.000245753 -0.00366016 -0.00297166 0.00986016 0.0371461 0.0619259 0.0410125 0.00110512 -0.0127 -0.00744082 -0.00668876 -0.00158417 0.0215272 0.051315 0.0669855 0.0398837 0.00526091 -0.00644941 -0.00493795 0.0057424 0.0126773 0.00530629 0.00281666 0.00034462 0.00425956 0.00638116 0.00656355 0.00620497 0.0054661 0.00431918 0.00269915 0.000642809 -0.00189266 -0.00734554 -0.00764052 0.0107325 0.0354718 0.0599897 0.0354934 0.0028088 -0.00025377 0.00503553 0.00581488 0.00809318 0.0185988 0.0439138 0.0646407 0.0448874 0.000445702 -0.0163925 -0.0131838 0.00131178 0.00898631 0.00459925 0.0031251 0.00442004 0.00793492 0.00857096 0.00800989 0.00715946 0.00609731 0.0046366 0.00254771 -0.000244713 -0.00408003 -0.0105145 -0.0149864 0.00434623 0.0223332 0.0379407 0.0336563 0.022149 0.017274 0.01751 0.0184831 0.0222632 0.0308799 0.0411161 0.0470398 0.039098 -0.00489293 -0.0221202 -0.014697 -0.00160486 0.00654311 -0.00166715 -0.00511672 0.0104378 0.0133152 0.0108055 0.00963105 0.00837998 0.00719307 0.00567937 0.00350999 0.000344445 -0.00442901 -0.0086642 -0.0134422 0.00742116 0.0236078 0.0284074 0.0254128 0.0203503 0.0182783 0.0183737 0.0191996 0.0216052 0.0262448 0.031363 0.0384194 0.0353954 0.00324625 -0.014024 -0.00629325 0.00344833 0.0089093 -0.00370244 -0.00383983 0.00892618 0.011583 0.0105814 0.0102242 0.00940515 0.0085588 0.00741069 0.00575907 0.00304266 -0.00114581 0.00695857 0.00668735 0.0083925 0.0100205 0.0114095 0.0125414 0.0125923 0.0124097 0.0122957 0.0124935 0.0138251 0.0158057 0.0171358 0.019614 0.021609 0.0138744 0.00606482 0.00961625 0.0141959 0.0135941 0.00180268 0.00221339 0.00721976 0.00986983 0.0107254 0.0109358 0.0106121 0.0102824 0.00990215 0.00950799 0.00894748 0.00825053 0.0259344 0.0288289 0.00653303 -0.00599277 -0.00564148 -0.000394175 0.00367409 0.00505098 0.00488093 0.00433884 0.00474072 0.00462779 0.00342353 0.000664837 0.00501174 0.0207175 0.0275046 0.0257887 0.0230169 0.0175627 0.0109677 0.00901141 0.0108864 0.011935 0.0120923 0.012101 0.0119433 0.0120872 0.0125647 0.0136391 0.0157214 0.0192284 0.0305092 0.0342613 0.0114636 -0.0074444 -0.0163128 -0.00908775 0.000585934 0.00323781 0.00124676 -0.000535816 -0.000190004 -0.00340616 -0.0120027 -0.0203638 -0.00893836 0.0300603 0.0428714 0.0352836 0.0296497 0.0222127 0.016867 0.0148284 0.0141332 0.0142703 0.0134962 0.013249 0.0130627 0.01346 0.0143696 0.0161379 0.0190709 0.0237343 0.0275258 0.0282366 0.00704315 -0.0226839 -0.0314174 -0.00760736 0.0149656 0.0154883 0.0103324 0.0071333 0.00803437 0.00343823 -0.0160472 -0.0395817 -0.0203991 0.0282487 0.0417634 0.0350268 0.0321505 0.0248101 0.0219741 0.0205434 0.0177369 0.01678 0.0145966 0.0138518 0.0135194 0.0140577 0.0151724 0.0171198 0.019896 0.023896 0.0237726 0.0227837 0.00587185 -0.0273585 -0.0401408 -0.0157642 0.0271815 0.0342243 0.0201422 0.0143332 0.0230601 0.0121816 -0.0308362 -0.0502651 -0.0212434 0.0171069 0.0303268 0.0269796 0.0305131 0.0227912 0.0235992 0.0238969 0.0209384 0.0198263 0.0161869 0.0145663 0.0138173 0.0142131 0.0152507 0.016936 0.0191481 0.0219424 0.0216107 0.0213196 0.0143202 -0.00275226 -0.0209804 -0.0183063 0.0129255 0.021652 0.00931818 0.00501118 0.0154612 0.00511866 -0.0317986 -0.0333028 -0.0048989 0.0177682 0.0265826 0.0220277 0.0299615 0.0196644 0.026809 0.0294741 0.0239445 0.0225983 0.0172644 0.014264 0.0131453 0.0134908 0.0146017 0.0161431 0.017998 0.0200824 0.0187601 0.0184741 0.0154365 0.00765863 0.000647449 -0.00277508 -0.00143658 -0.00340036 -0.00519756 -0.0066866 -0.00601702 -0.00703931 -0.0111518 -0.0052817 0.00833297 0.0195967 0.0191014 0.00273212 0.0320281 0.0208769 0.032876 0.0215083 0.0217972 0.0267889 0.0215486 0.0157928 0.0132635 0.0128908 0.0138357 0.0150781 0.0164902 0.0178163 0.0162816 0.0157738 0.0139692 0.00952338 0.00454019 0.000848092 0.000877846 -0.00159762 -0.00407648 -0.00477413 -0.00276146 -0.00176896 -0.00421614 0.000600076 0.00974618 0.0147908 0.00109749 -0.0219743 0.0421329 0.0310726 0.0452831 0.0417315 0.0116414 0.0171075 0.0226718 0.0161268 0.0132314 0.012175 0.0129622 0.0139608 0.0150291 0.0158259 0.0145779 0.014044 0.0128547 0.0102139 0.00718284 0.00366275 0.000668478 -0.00258 -0.00421128 -0.00461938 -0.00343353 -0.000908296 0.000750693 0.00483213 0.00911367 0.0100286 -0.00104915 -0.0142967 0.0436219 0.0316088 0.0554316 0.0680424 -0.00708793 -0.00555982 0.0153464 0.0118527 0.011615 0.0111547 0.0121803 0.0130713 0.0139101 0.0143937 0.0131043 0.0124435 0.0113587 0.00940972 0.00726997 0.00495626 0.00339971 0.00178121 0.000893312 0.000778553 0.00137816 0.00291128 0.00334328 0.00626318 0.0070118 0.0136962 0.0241143 0.00369043 0.0132985 0.017473 0.0429865 0.0588567 0.00798844 -0.00101215 0.00898013 0.00948812 0.0104159 0.0109232 0.0118193 0.0125 0.0130136 0.0131995 0.0123552 0.0117725 0.010909 0.00952192 0.0079566 0.00614609 0.00454833 0.00309404 0.00236596 0.00242539 0.0030853 0.00490446 0.00575878 0.00842077 0.00783339 0.0227947 0.0522242 0.0174309 -0.0191821 0.000599187 0.00640704 0.0177062 0.0286049 0.0248376 0.0106571 0.011473 0.011208 0.0119188 0.0121302 0.0124261 0.0125776 0.0125646 0.0116986 0.0111434 0.0104076 0.00937484 0.00828325 0.00713344 0.00623233 0.00549322 0.00514942 0.00528193 0.00570283 0.0068267 0.00720753 0.00819112 0.00643113 0.0143476 0.0398984 0.0270984 -0.017933 0.00350509 -0.00448956 0.0205972 0.0389122 0.0249545 0.00947697 0.0111514 0.0115626 0.0123325 0.0122581 0.0122732 0.0121806 0.012008 0.0113687 0.0109209 0.0103539 0.00961267 0.00881381 0.00797048 0.00724658 0.0066743 0.00642391 0.00657572 0.00701971 0.00795635 0.00857929 0.00892685 0.00733223 0.00548156 0.014758 0.0206127 0.00193381 0.00984143 0.00657742 0.0345259 0.0263392 0.012511 0.00860658 0.0112728 0.0121232 0.0125157 0.0122612 0.0121001 0.0118951 0.0116724 0.0110877 0.0107164 0.0102822 0.00976426 0.00923509 0.00871693 0.00830866 0.00802566 0.00794893 0.0081125 0.00849414 0.0091532 0.00988446 0.0103756 0.0103218 0.00788942 0.0087253 0.00856038 0.0114631 0.0138659 0.0134482 0.0228036 0.0162421 0.0116625 0.0117567 0.0129862 0.0129434 0.0127065 0.0122509 0.0119366 0.0116507 0.0113856 0.0108888 0.0106338 0.0103463 0.01002 0.00968816 0.00936878 0.00911536 0.0089483 0.00892686 0.0090571 0.00935718 0.00977035 0.0103334 0.0105892 0.0110044 0.00961446 0.0101347 0.00951643 0.0120122 0.0160052 0.0132066 0.0143671 0.0124917 0.011383 0.0120208 0.012424 0.0123528 0.0121018 0.0117899 0.0115422 0.0113181 0.0111103 0.0107157 0.0105584 0.0104003 0.0102393 0.0100907 0.0099634 0.00988577 0.00985971 0.00992257 0.0100519 0.0102981 0.0105543 0.0109837 0.0111019 0.0115956 0.0107268 0.0111732 0.00991618 0.0114356 0.012004 0.0118852 0.0120768 0.0121689 0.0118186 0.0123056 0.0122502 0.0120851 0.0117762 0.0114924 0.0112489 0.0110472 0.0108746 0.0105247 0.0104837 0.0104623 0.0104595 0.0104762 0.0105097 0.0105693 0.0106421 0.0107527 0.0108605 0.0110229 0.0111155 0.0113237 0.0112321 0.0115038 0.0108753 0.0113178 0.010502 0.0114405 0.0114832 0.011535 0.0113912 0.0115615 0.0112329 0.0115061 0.0113659 0.0113007 0.0111054 0.0109469 0.0107958 0.0106784 0.0105887 0.0103329 0.010403 0.010516 0.0106698 0.0108504 0.0110442 0.0112425 0.0114193 0.0115909 0.0117044 0.0118247 0.0118263 0.0118883 0.0116828 0.0117442 0.0111768 0.011363 0.01061 0.0110942 0.0107837 0.0110136 0.010768 0.0110703 0.0108472 0.0110361 0.0108818 0.0108186 0.0106495 0.0105239 0.0104091 0.0103389 0.0103123 0.0100625 0.0102477 0.0104997 0.0108217 0.0111838 0.0115638 0.0119296 0.0122388 0.0124847 0.0126006 0.0126525 0.0125205 0.0123814 0.012004 0.0118152 0.0112303 0.0112095 0.0106024 0.0108515 0.0104998 0.0106424 0.0103444 0.0104889 0.0102557 0.0103416 0.010203 0.0101628 0.01005 0.00997799 0.00991999 0.0099091 0.00995391 0.00976912 0.01008 0.0104842 0.0109969 0.0115508 0.0121216 0.0126357 0.0130568 0.0133693 0.0135039 0.0135401 0.013336 0.013055 0.0125304 0.0121025 0.0114228 0.0111499 0.0105376 0.0105362 0.010145 0.0101853 0.00989148 0.009971 0.00977629 0.00980582 0.00967847 0.00962628 0.00952806 0.00946956 0.00943864 0.00946666 0.00957368 0.00930447 0.00972594 0.010281 0.0110168 0.0118295 0.0126994 0.0134977 0.0141733 0.0146344 0.0147992 0.0147528 0.0143384 0.0137656 0.01295 0.0122019 0.0113409 0.0108533 0.0102262 0.0100978 0.00970953 0.00968015 0.00938346 0.00939607 0.00920738 0.00919707 0.0090786 0.00902107 0.00893327 0.00887953 0.00885962 0.00890407 0.00904832 
        </DataArray>
        <DataArray Name="vz" NumberOfComponents="1" type="Float32" format="ascii">
0 0 0 0 0 0 0 0 0 0 0 0 0 0 0 0 0 0 0 0 0 0 0 0 0 0 0 0 0 0 0 0 0 0 0 0 0 0 0 0 0 0 0 0 0 0 0 0 0 0 0 0 0 0 0 0 0 0 0 0 0 0 0 0 0 0 0 0 0 0 0 0 0 0 0 0 0 0 0 0 0 0 0 0 0 0 0 0 0 0 0 0 0 0 0 0 0 0 0 0 0 0 0 0 0 0 0 0 0 0 0 0 0 0 0 0 0 0 0 0 0 0 0 0 0 0 0 0 0 0 0 0 0 0 0 0 0 0 0 0 0 0 0 0 0 0 0 0 0 0 0 0 0 0 0 0 0 0 0 0 0 0 0 0 0 0 0 0 0 0 0 0 0 0 0 0 0 0 0 0 0 0 0 0 0 0 0 0 0 0 0 0 0 0 0 0 0 0 0 0 0 0 0 0 0 0 0 0 0 0 0 0 0 0 0 0 0 0 0 0 0 0 0 0 0 0 0 0 0 0 0 0 0 0 0 0 0 0 0 0 0 0 0 0 0 0 0 0 0 0 0 0 0 0 0 0 0 0 0 0 0 0 0 0 0 0 0 0 0 0 0 0 0 0 0 0 0 0 0 0 0 0 0 0 0 0 0 0 0 0 0 0 0 0 0 0 0 0 0 0 0 0 0 0 0 0 0 0 0 0 0 0 0 0 0 0 0 0 0 0 0 0 0 0 0 0 0 0 0 0 0 0 0 0 0 0 0 0 0 0 0 0 0 0 0 0 0 0 0 0 0 0 0 0 0 0 0 0 0 0 0 0 0 0 0 0 0 0 0 0 0 0 0 0 0 0 0 0 0 0 0 0 0 0 0 0 0 0 0 0 0 0 0 0 0 0 0 0 0 0 0 0 0 0 0 0 0 0 0 0 0 0 0 0 0 0 0 0 0 0 0 0 0 0 0 0 0 0 0 0 0 0 0 0 0 0 0 0 0 0 0 0 0 0 0 0 0 0 0 0 0 0 0 0 0 0 0 0 0 0 0 0 0 0 0 0 0 0 0 0 0 0 0 0 0 0 0 0 0 0 0 0 0 0 0 0 0 0 0 0 0 0 0 0 0 0 0 0 0 0 0 0 0 0 0 0 0 0 0 0 0 0 0 0 0 0 0 0 0 0 0 0 0 0 0 0 0 0 0 0 0 0 0 0 0 0 0 0 0 0 0 0 0 0 0 0 0 0 0 0 0 0 0 0 0 0 0 0 0 0 0 0 0 0 0 0 0 0 0 0 0 0 0 0 0 0 0 0 0 0 0 0 0 0 0 0 0 0 0 0 0 0 0 0 0 0 0 0 0 0 0 0 0 0 0 0 0 0 0 0 0 0 0 0 0 0 0 0 0 0 0 0 0 0 0 0 0 0 0 0 0 0 0 0 0 0 0 0 0 0 0 0 0 0 0 0 0 0 0 0 0 0 0 0 0 0 0 0 0 0 0 0 0 0 0 0 0 0 0 0 0 0 0 0 0 0 0 0 0 0 0 0 0 0 0 0 0 0 0 0 0 0 0 0 0 0 0 0 0 0 0 0 0 0 0 0 0 0 0 0 0 0 0 0 0 0 0 0 0 0 0 0 0 0 0 0 0 0 0 0 0 0 0 0 0 0 0 0 0 0 0 0 0 0 0 0 0 0 0 0 0 0 0 0 0 0 0 0 0 0 0 0 0 0 0 0 0 0 0 0 0 0 0 0 0 0 0 0 0 0 0 0 0 0 0 0 0 0 0 0 0 0 0 0 0 0 0 0 0 0 0 0 0 0 0 0 0 0 0 0 0 0 0 0 0 0 0 0 0 0 0 0 0 0 0 0 0 0 0 0 0 0 0 0 0 0 0 0 0 0 0 0 0 0 0 0 0 0 0 0 0 0 0 0 0 0 0 0 0 0 0 0 0 0 0 0 0 0 0 0 0 0 0 0 0 0 0 0 0 0 0 0 0 0 0 0 0 0 0 0 0 0 0 0 0 0 0 0 0 0 0 0 0 0 0 0 0 0 0 0 0 0 0 0 0 0 0 0 0 0 0 0 0 0 0 0 0 0 0 0 0 0 0 0 0 0 0 0 0 0 0 0 0 0 0 0 0 0 0 0 0 0 0 0 0 0 0 0 0 0 0 0 0 0 0 0 0 0 0 0 0 0 0 0 0 0 0 0 0 0 0 0 0 0 0 0 0 0 0 0 0 0 0 0 0 0 0 0 0 0 0 0 0 0 0 0 0 0 0 0 0 0 0 0 0 0 0 0 0 0 0 0 0 0 
        </DataArray>
        <DataArray Name="p" NumberOfComponents="1" type="Float32" format="ascii">