<?xml version="1.0"?>
<VTKFile type="StructuredGrid" version="0.1" byte_order="LittleEndian">
  <StructuredGrid WholeExtent="0 32 0 32 0 1">
    <Piece Extent="0 32 0 32 0 1">
      <PointData>
      </PointData>
      <CellData>
        <DataArray Name="vx" NumberOfComponents="1" type="Float32" format="ascii">
0.0212963 0.021719 0.0221194 0.0225017 0.0228252 0.0230205 0.0230073 0.0226731 0.0220343 0.0211685 0.0203244 0.019621 0.0191983 0.0190103 0.0189665 0.0190233 0.0190402 0.0189615 0.0186744 0.0182446 0.0178338 0.0176019 0.0176081 0.0177708 0.0180682 0.0184352 0.0188376 0.0192536 0.0196663 0.0200775 0.0204814 0.0208935 0.0213553 0.0218575 0.0223468 0.0228454 0.0233211 0.0236398 0.0237015 0.0233509 0.0225387 0.021318 0.0201546 0.0192269 0.0186348 0.0183935 0.0183171 0.0184295 0.0185361 0.0185526 0.0183357 0.0179606 0.017699 0.0175872 0.0176981 0.0179169 0.0182114 0.0185546 0.0189192 0.0192943 0.0196793 0.0200741 0.0204781 0.0209171 0.0213791 0.0219896 0.0225781 0.0232038 0.0238488 0.0244325 0.0248148 0.0244495 0.0232856 0.0214399 0.019679 0.0183701 0.0177213 0.017591 0.0175376 0.0178217 0.0181334 0.0183436 0.0181689 0.017754 0.0175514 0.0174645 0.0176862 0.0179861 0.0182964 0.0186342 0.0189676 0.0193039 0.019657 0.0200342 0.0204316 0.0209067 0.0213031 0.0219924 0.02255 0.0230808 0.0236965 0.0242146 0.0248366 0.0250616 0.0241187 0.0216768 0.0197209 0.0186093 0.017887 0.017575 0.0172132 0.017459 0.0179366 0.0183269 0.0179245 0.0171771 0.0169768 0.0170596 0.0176166 0.0180573 0.0184035 0.018734 0.0190279 0.0193188 0.0196276 0.0199784 0.0203464 0.0208468 0.0211261 0.0218122 0.0219527 0.0214382 0.0205142 0.0203176 0.0220857 0.0240202 0.0244437 0.0225892 0.0212997 0.021013 0.0209994 0.0202555 0.0182678 0.0177003 0.0181094 0.0187138 0.0179271 0.0166991 0.0163752 0.0163968 0.0174124 0.0181215 0.0185144 0.018842 0.0190801 0.0193114 0.0195597 0.0198789 0.0202016 0.020736 0.0205443 0.0209282 0.0194596 0.0158878 0.011295 0.00715829 0.00901596 0.0171875 0.0240581 0.0248157 0.0278853 0.0331014 0.0338357 0.0298998 0.0233855 0.0196134 0.0190411 0.0196364 0.0172866 0.0148931 0.0145753 0.0152155 0.0177373 0.0186889 0.0189664 0.0191049 0.0191753 0.019286 0.0194312 0.0196914 0.0199169 0.0204377 0.019858 0.0196744 0.0153013 0.00404811 -0.0117215 -0.0164904 -0.00415672 0.0102903 0.021851 0.0269297 0.0329815 0.043133 0.0532554 0.0510296 0.0348088 0.0234863 0.020539 0.0212204 0.0183891 0.0161795 0.0159878 0.0150768 0.0175803 0.0191561 0.0195131 0.0194605 0.0193222 0.0192614 0.0192759 0.0194562 0.0195708 0.0200784 0.0188876 0.0178155 0.00690741 -0.011838 -0.0221798 -0.0103627 0.00717511 0.0112536 0.0148355 0.0207308 0.0240029 0.027542 0.0429471 0.0580016 0.0471658 0.0285202 0.0229172 0.0249376 0.027112 0.0240712 0.0259774 0.0267264 0.0227326 0.0219334 0.0206265 0.0198652 0.0193449 0.0190865 0.0189799 0.0190991 0.0191507 0.0196329 0.0182236 0.0188261 0.0111436 -0.00120074 0.0151122 0.0319104 0.0266931 0.0210233 0.0158795 0.0170232 0.0168192 0.0165407 0.0119881 0.0284691 0.0407041 0.0268935 0.0227949 0.0248505 0.0340183 0.0333148 0.0301121 0.0322872 0.0287724 0.025559 0.0221207 0.0203533 0.0193995 0.0188469 0.0185602 0.0184821 0.0183623 0.0187003 0.0221192 0.0254076 0.0341713 0.0539955 0.0675434 0.0585627 0.0414628 0.0275531 0.0192174 0.0155441 0.0115856 0.00335347 -0.0103635 -0.0194737 -0.00140023 0.0151999 0.0158548 0.0148309 0.019527 0.0189692 0.0215111 0.0257853 0.0209764 0.0210423 0.0194978 0.018859 0.0184116 0.0181253 0.0180037 0.0180025 0.0184442 0.0191883 0.0137742 0.00803169 0.0208804 0.0417228 0.0408732 0.0331738 0.0249735 0.0197786 0.0176005 0.0179548 0.0180467 0.0152474 0.00926173 -0.000201089 -0.000538287 0.0188525 0.0277548 0.0200765 0.0146755 0.0121055 0.020123 0.0248348 0.0191749 0.0178069 0.0176199 0.017563 0.0173946 0.0172626 0.017042 0.016542 0.0160569 0.0142296 0.0111342 0.014208 0.0186546 0.0194782 0.021613 0.0210386 0.0173808 0.0158965 0.0167377 0.0191332 0.0220653 0.0229278 0.0214442 0.0205515 0.0259429 0.0356826 0.0385435 0.0344949 0.0258771 0.025325 0.018488 0.0115749 0.0152133 0.0144349 0.0157985 0.0161364 0.0163885 0.0164608 0.0163115 0.0157193 0.0150263 0.013115 0.0134037 0.0144204 0.0252317 0.0303477 0.0272334 0.0249294 0.0193004 0.0164359 0.0167331 0.0186487 0.0215301 0.0217225 0.0186208 0.01849 0.0221899 0.0323494 0.0400209 0.0383927 0.0327484 0.0322862 0.0233278 0.0139818 0.0158783 0.0143147 0.0150282 0.0153425 0.0157445 0.0160762 0.0161208 0.0158413 0.0153872 0.0141024 0.0179599 0.0161432 0.0321725 0.0521743 0.0548049 0.0500625 0.035398 0.0246691 0.0194159 0.0159948 0.0144325 0.00880304 -0.00435431 -0.00973195 -0.00611017 0.0142832 0.0315172 0.0333827 0.0330297 0.0316695 0.0241622 0.016055 0.0152937 0.0132351 0.0138538 0.0144287 0.0151527 0.0158256 0.0161341 0.0162624 0.0163727 0.0160238 0.0161755 0.0161856 0.00701506 0.0210995 0.0466293 0.0492859 0.0367233 0.0231949 0.0171072 0.0122354 0.0124827 0.00453069 -0.0102366 -0.0113953 0.015296 0.0340725 0.0281235 0.0338585 0.0349575 0.0327167 0.0217689 0.0127059 0.0137361 0.0120169 0.0130617 0.0139149 0.0149324 0.0159021 0.016392 0.0168006 0.0167763 0.0169737 0.0157428 0.0134671 -0.000404339 -0.0155154 -0.0178688 -0.00797728 -0.00128012 0.00233121 0.0115538 0.015847 0.0289841 0.0361708 0.0407906 0.056123 0.0560813 0.0426535 0.0326512 0.0372985 0.0399308 0.0366292 0.0206829 0.00728246 0.0106151 0.0102853 0.0121055 0.0134336 0.014866 0.0161614 0.0168433 0.0173497 0.0173141 0.0172518 0.0181362 0.0169535 0.0106171 -0.0046539 -0.0200118 -0.0192191 -0.00257594 0.00939188 0.0168337 0.0246994 0.026579 0.0341118 0.0534307 0.0610592 0.0470498 0.0320105 0.028459 0.0418156 0.0555762 0.0485276 0.00603264 -0.0135148 0.00791354 0.0122642 0.014761 0.0154636 0.0162945 0.0173362 0.0179196 0.0184224 0.0185297 0.0187384 0.0193857 0.0189945 0.0163948 0.0105848 0.00295625 -0.00264199 0.00540424 0.0169475 0.0217053 0.0255617 0.0238099 0.0306014 0.0413174 0.0378048 0.0281414 0.0239225 0.0281258 0.05063 0.0677373 0.0508332 -0.0119884 -0.0358211 -0.0110859 0.00881845 0.0158138 0.0176183 0.0182894 0.0189656 0.0193109 0.0195702 0.0195833 0.0196712 0.0208954 0.0210644 0.0207732 0.0191197 0.0169708 0.0155408 0.0181432 0.0212277 0.021128 0.0213816 0.0188992 0.0195148 0.021257 0.0189364 0.0156838 0.0142293 0.0202069 0.0258965 0.0135711 0.00679447 0.0369386 0.0338824 0.00604672 0.0207756 0.0215684 0.0228255 0.0219183 0.0215969 0.0212192 0.0209963 0.0208362 0.0208464 0.0216497 0.0218369 0.0221019 0.0221348 0.0221998 0.0220018 0.0229733 0.0232517 0.0208817 0.0182836 0.0143055 0.0128527 0.0124602 0.00985207 0.00832558 0.0045666 0.00266422 -0.0231247 -0.0305939 -0.00788459 0.0547855 0.0895347 0.0658882 0.036969 0.031525 0.0279054 0.0261802 0.0243931 0.0232761 0.0224026 0.0219265 0.0216743 0.0221551 0.0222719 0.0226037 0.0229093 0.0233207 0.023487 0.0235273 0.0225213 0.0199176 0.0171756 0.0135419 0.0108369 0.00859975 0.00511265 0.00131177 -0.00752853 -0.0265013 -0.0663611 -0.0565343 -0.0144123 0.0305279 0.0604646 0.0541219 0.0381695 0.0315421 0.0294974 0.0280112 0.0259255 0.0244858 0.0232691 0.0226282 0.0222315 0.0223868 0.0223522 0.0224967 0.0226481 0.0228401 0.0227577 0.0224156 0.0214075 0.019371 0.0170856 0.0143073 0.0118731 0.00964454 0.00594454 0.00219154 -0.0071863 -0.0222291 -0.0645294 -0.0563393 -0.00853424 0.0337874 0.0631797 0.0574425 0.0432006 0.0356617 0.0319774 0.0295845 0.0269393 0.0252245 0.0238299 0.0230784 0.0225734 0.0223616 0.0222928 0.0223504 0.0224003 0.0224378 0.0222606 0.0217938 0.0208372 0.0192795 0.0175049 0.0155057 0.0134667 0.0118057 0.00868323 0.00686736 0.000611156 0.00501158 -0.0197859 -0.025741 0.00660334 0.0516827 0.0731031 0.0593266 0.0418007 0.0361383 0.0314903 0.0286701 0.0261965 0.0247349 0.0235868 0.0229674 0.0225372 0.0222523 0.0221552 0.0221229 0.0220617 0.0219588 0.0216907 0.0212254 0.0204696 0.0193945 0.0181711 0.0169588 0.0157968 0.0151433 0.0142341 0.0142827 0.0166433 0.0278568 0.0587375 0.0487855 0.0263019 0.0376596 0.0181949 0.0142111 0.0257693 0.0277465 0.0270233 0.0257574 0.0245228 0.023777 0.0230999 0.0227089 0.022403 0.0219975 0.0219543 0.0219296 0.0218643 0.0217442 0.0214929 0.021092 0.0204861 0.0197191 0.0188504 0.0181088 0.0174269 0.0173055 0.0172578 0.0178352 0.0202314 0.0264021 0.0537946 0.0640793 0.0276997 -0.0146194 -0.0174569 0.00088808 0.0166521 0.021442 0.0222291 0.0225496 0.0224526 0.0224344 0.0222658 0.0221623 0.0220503 0.0217877 0.0217832 0.0217621 0.0216909 0.0215612 0.021329 0.0209988 0.0205387 0.0200217 0.0194518 0.0190793 0.0188159 0.0191263 0.0197699 0.0209571 0.0232514 0.0255996 0.0346608 0.0399801 0.0207346 -0.00671209 -0.00621242 0.00846074 0.0150139 0.018313 0.0195104 0.0205935 0.0211291 0.0215138 0.0216603 0.0217452 0.0217702 0.0215466 0.0216123 0.0216391 0.0216108 0.021521 0.0213428 0.0210871 0.0207316 0.020359 0.0199506 0.0197384 0.0196184 0.0199822 0.0206537 0.0217775 0.0237059 0.0248972 0.0284743 0.0284094 0.0195145 0.00822902 0.00631657 0.0112622 0.0138963 0.0164391 0.0178792 0.0192464 0.0200828 0.0206833 0.0210449 0.0212836 0.0214396 0.0213951 0.02151 0.0215739 0.0215797 0.0215224 0.021386 0.0211841 0.0209028 0.0206193 0.0203103 0.0201765 0.0201181 0.020449 0.0209997 0.0218962 0.0232092 0.0239473 0.0250604 0.0242532 0.0194433 0.0128507 0.0113611 0.0133135 0.0145132 0.0163338 0.017579 0.0187836 0.0196209 0.020247 0.0206883 0.021 0.0212303 0.0212672 0.0214432 0.0215645 0.0216275 0.0216239 0.0215401 0.0213834 0.0211423 0.0208821 0.020588 0.0204291 0.0203243 0.0205147 0.0208394 0.0213993 0.0221566 0.0225069 0.0228649 0.0218518 0.0191502 0.0157132 0.0144083 0.0149118 0.0154729 0.0166547 0.0176093 0.0185675 0.0193201 0.0199172 0.0203899 0.0207502 0.0210417 0.0212213 0.0214447 0.0216141 0.0217259 0.0217674 0.0217243 0.0215948 0.0213704 0.0210996 0.0207806 0.0205579 0.0203782 0.0204256 0.0205628 0.020869 0.0212387 0.0213534 0.021313 0.0204891 0.018863 0.0168299 0.0159362 0.0160474 0.0163645 0.0171286 0.0178475 0.0185894 0.0192371 0.0197809 0.0202473 0.0206271 0.0209532 0.0212066 0.0214917 0.0217305 0.0219184 0.0220332 0.0220499 0.0219477 0.0217052 0.021358 0.0209286 0.0205604 0.0202457 0.020133 0.0201162 0.020238 0.0203883 0.0203865 0.0202428 0.0196307 0.0186508 0.0174995 0.016903 0.0168614 0.017046 0.0175394 0.0180769 0.0186523 0.0192009 0.0196909 0.0201401 0.0205324 0.0208907 0.0212469 0.0215876 0.02189 0.0221491 0.0223363 0.0224089 0.0223287 0.0220644 0.0216299 0.0210633 0.0205329 0.0200732 0.0198043 0.0196654 0.0196585 0.0196969 0.0196558 0.0194976 0.0190593 0.0184244 0.0177353 0.0173608 0.0173253 0.0174837 0.0178475 0.0182822 0.0187558 0.019232 0.0196809 0.020111 0.0205097 0.020892 
        </DataArray>
        <DataArray Name="vy" NumberOfComponents="1" type="Float32" format="ascii">
0.0103025 0.0103726 0.0105751 0.010838 0.0112945 0.0118672 0.0125924 0.01332 0.0139493 0.0142702 0.0142139 0.0138679 0.0133217 0.0126445 0.0120064 0.0112757 0.0107252 0.0101493 0.00977802 0.00942737 0.00931808 0.00939571 0.00954682 0.00976972 0.00997998 0.0101336 0.0102522 0.0102971 0.0103143 0.0102953 0.0102773 0.0102636 0.00988011 0.00992228 0.0101658 0.0104342 0.0110091 0.0117304 0.0128184 0.0139583 0.0149085 0.0153711 0.0151977 0.0145764 0.0136492 0.0127494 0.0119483 0.0111514 0.010668 0.0102159 0.010049 0.00972703 0.00958043 0.00946265 0.00945001 0.00954051 0.00966238 0.00976688 0.00986054 0.00989668 0.00991069 0.00988722 0.00986714 0.00983696 0.00936512 0.00931297 0.00958084 0.0097814 0.0104847 0.0114314 0.0129238 0.0145236 0.0160423 0.0167581 0.0163409 0.015446 0.0141422 0.0129476 0.0119564 0.0110362 0.0106177 0.0103226 0.0104147 0.010003 0.00972873 0.00934606 0.00921551 0.00924748 0.00933284 0.00942545 0.00950638 0.00953228 0.00953026 0.00948003 0.00943362 0.00934725 0.00888475 0.0087249 0.00906885 0.00918983 0.00989488 0.0106656 0.0128217 0.015422 0.0177562 0.0188443 0.0181482 0.0165188 0.014336 0.0129519 0.0117352 0.0105551 0.0101859 0.0101377 0.0107185 0.01027 0.0100031 0.00929949 0.00896951 0.00895103 0.0090071 0.00910555 0.00918759 0.0092096 0.00919304 0.00911166 0.00903711 0.00888325 0.00827403 0.00794948 0.00853044 0.00848245 0.00932001 0.0101387 0.0122263 0.0153528 0.0195597 0.0214195 0.019527 0.0174166 0.0151752 0.013567 0.0121005 0.0103076 0.00983761 0.0102588 0.0117536 0.0106409 0.0101133 0.00846144 0.00823959 0.00843216 0.00863242 0.00880861 0.00891384 0.00892609 0.00887351 0.008728 0.00858826 0.00831583 0.00790111 0.00782731 0.00952936 0.0107019 0.0112829 0.00859784 0.00939912 0.0130572 0.0188809 0.0217408 0.0195984 0.0169452 0.0147486 0.015701 0.0142594 0.0105886 0.0092306 0.0101299 0.0130583 0.0113636 0.0107049 0.00800823 0.00748108 0.00785986 0.0082821 0.00855265 0.00870896 0.0087217 0.00864036 0.00843686 0.00823199 0.0078792 0.00802684 0.00909871 0.0138483 0.0167866 0.0179008 0.0121458 0.00247633 0.000598164 0.0115547 0.0176846 0.0114717 0.0115296 0.0184794 0.02383 0.0228337 0.014866 0.0101393 0.0117808 0.0170984 0.0120534 0.0119313 0.00408486 0.00494818 0.00706064 0.00818802 0.00861568 0.00873115 0.00866874 0.00849671 0.00821752 0.00794725 0.00766269 0.00807585 0.0120417 0.0245113 0.0377788 0.032435 -0.00201864 -0.0153937 -0.012301 0.00243475 0.0110473 0.00400663 -0.00204454 0.00517648 0.0339896 0.0411934 0.0243538 0.0115828 0.0118675 0.0199257 0.0115696 0.011871 0.00523854 0.00453993 0.00584245 0.00798762 0.00874792 0.00888375 0.00873223 0.00843161 0.00802681 0.00756052 0.00729346 0.0104148 0.0222529 0.0442378 0.0486075 0.0144093 -0.0173135 -0.0190864 -0.0103652 0.00131699 0.00731567 0.00232272 -0.00802619 -0.0117326 0.0187095 0.0547091 0.0401304 0.0141213 0.00713723 0.0169151 0.0148653 0.0096618 0.00907869 0.00846384 0.00944829 0.0101831 0.010004 0.00952952 0.00906628 0.0085505 0.00811769 0.00763898 0.00824918 0.00674303 0.0182397 0.0416445 0.0327903 -0.00170569 -0.00850307 -0.00403961 0.00182131 0.00835615 0.0111905 0.00758141 0.00302961 -0.00367942 0.00417973 0.0392134 0.0417851 0.0130809 0.0016462 0.00964314 0.0182906 0.00866469 0.0101904 0.00867793 0.0130653 0.0125422 0.0114195 0.0102718 0.00949976 0.00869988 0.0080237 0.00699516 0.00679337 0.00478326 0.0119616 0.0167482 0.0156427 0.0102909 0.00754133 0.00802822 0.0101811 0.012802 0.0142587 0.0132758 0.0118957 0.0103037 0.0133272 0.0209632 0.0238335 0.0133565 0.00457408 0.0106327 0.0149184 -0.00264189 0.0125388 0.0118988 0.0132758 0.0126003 0.0114781 0.010375 0.00958882 0.00874071 0.00793581 0.00665569 0.005449 0.0094109 0.0106988 0.00913421 0.0124009 0.00898998 0.00910875 0.00984822 0.0100269 0.0105149 0.0108509 0.0107403 0.0117052 0.0120362 0.0130001 0.0195041 0.0125217 0.0151339 0.0126728 0.0173425 0.0151409 -0.00224822 0.0119414 0.0138672 0.0130005 0.0122416 0.011322 0.0104183 0.00979554 0.00925796 0.00888787 0.00861155 0.00844851 0.00948373 0.0026148 0.0115286 0.00947195 0.00736037 0.010659 0.0118872 0.010591 0.00965463 0.00919153 0.00953901 0.0119803 0.0126907 0.00785047 0.00794389 0.00851837 0.0139339 0.0185582 0.0210438 0.019679 0.0115934 0.0135674 0.0127279 0.0125237 0.0117144 0.0109586 0.0101976 0.00977645 0.00956634 0.00957456 0.00997375 0.0102443 0.0085491 -0.00400064 -0.00785133 0.0140592 0.0168395 0.0183508 0.0183962 0.0122752 0.00766772 0.00554011 0.00680015 0.0143146 0.0161039 0.0105459 0.0108629 -0.00959158 0.00767428 0.0202696 0.024238 0.0239394 0.0192709 0.0166078 0.0143987 0.012707 0.0113086 0.0103315 0.00965575 0.00941417 0.00943591 0.00962998 0.0101623 0.00995081 0.00734093 -0.00597236 -0.0265582 -0.0137372 0.00700391 0.0285451 0.0362952 0.0272801 0.0192389 0.0155212 0.0176757 0.0304532 0.0299883 0.00503355 -0.0176959 -0.0298867 0.000516725 0.0158122 0.0239222 0.0272162 0.0280864 0.0213422 0.0171202 0.0136102 0.0111437 0.00964554 0.00892888 0.00884163 0.00908386 0.00945845 0.00993759 0.00940975 0.00914632 0.00371165 -0.0129654 -0.0255421 -0.00642275 0.0289017 0.0437107 0.0296107 0.0180302 0.0105074 0.0115404 0.0360031 0.0316898 -0.00733758 -0.0341193 -0.021103 0.00357511 0.0129946 0.0250649 0.0368874 0.0415894 0.0221055 0.015807 0.0120986 0.00949806 0.00807274 0.0076219 0.00789311 0.00850638 0.00923424 0.00994394 0.0103223 0.0110133 0.00991934 0.00375935 -0.000194288 -0.00170874 0.0140661 0.0275184 0.0169051 0.00658128 -0.000637098 -0.000390544 0.02054 0.0118724 -0.010528 -0.0112729 -0.00330219 0.00541643 0.00904518 0.0252289 0.0444482 0.0578859 0.032009 0.0160236 0.0120088 0.00889852 0.00692524 0.00644025 0.00690603 0.00790197 0.00894763 0.00994709 0.0108591 0.0112836 0.0115155 0.00942183 0.00737208 0.00726951 0.0111339 0.0134433 0.00719209 0.00218878 -0.000318553 -0.000358915 0.00702221 0.00420807 -0.00150562 -0.00328258 -0.000780826 -0.00721102 -0.0140615 0.015274 0.0897538 0.108688 0.0138948 -0.0100606 0.0036213 0.00622473 0.00608618 0.00566582 0.00617807 0.00741329 0.00862931 0.00974103 0.0107605 0.0116065 0.0123919 0.0121572 0.0120684 0.0110723 0.0107205 0.00935781 0.0030293 -0.00136659 -0.00313435 -0.00216109 0.00451895 0.00406514 0.00260057 0.00103531 -0.00206491 -0.0222329 -0.0275431 0.0261212 0.117192 0.138847 0.0353229 -0.0291229 -0.0155312 0.000844773 0.00435479 0.0052844 0.00588347 0.0073114 0.00860805 0.00979869 0.010842 0.0113411 0.0118491 0.0118703 0.0117077 0.011102 0.00988458 0.00765471 0.00364154 0.00128649 0.000483396 0.00089444 0.00418426 0.00457439 0.00418581 0.00128787 -0.00463331 -0.0203176 -0.0101954 0.0369944 0.0709355 0.0844276 0.0472124 0.0011923 -0.00674106 0.00448169 0.00654424 0.00695059 0.00699687 0.0080593 0.00905125 0.0100024 0.0107747 0.011377 0.011691 0.0117334 0.0115753 0.0109666 0.00977894 0.00822518 0.00565546 0.004062 0.00365318 0.00420085 0.00661094 0.006999 0.00716769 0.00569179 0.00552858 0.00411284 0.00798789 0.0145301 0.0269447 0.0397753 0.0281124 0.0231212 0.0121262 0.0091387 0.00870793 0.00852114 0.00858558 0.00922874 0.00986621 0.0104844 0.0109905 0.0114233 0.0114956 0.0114227 0.0111506 0.0106492 0.00972357 0.00861025 0.0071564 0.00638919 0.00642973 0.00705256 0.00898026 0.0100022 0.0115785 0.0130361 0.0238293 0.0353637 0.0199056 -0.0140369 -0.0157301 0.00745751 0.0224884 0.0246356 0.0186123 0.0129861 0.0107496 0.0105127 0.0106444 0.0107672 0.0109352 0.0111101 0.0112887 0.0115658 0.0114951 0.0113681 0.0111119 0.0107447 0.0101424 0.00953065 0.00878751 0.00847876 0.00878921 0.00960499 0.0113957 0.0129472 0.015103 0.0189223 0.0317008 0.0608508 0.046561 -0.046133 -0.0669924 -0.0359957 0.00442729 0.0430114 0.0352658 0.0204678 0.0151005 0.0135158 0.0129432 0.012328 0.0119662 0.0117291 0.0116273 0.0117098 0.0115442 0.0113731 0.0111258 0.0108376 0.0104266 0.0100533 0.00969938 0.00968082 0.0101321 0.0110131 0.0126176 0.0144155 0.0164117 0.019661 0.0257701 0.0494611 0.0519926 -0.0314471 -0.0970382 -0.0516648 0.0175964 0.0556074 0.0379587 0.0227432 0.0176999 0.0156599 0.0144918 0.0133872 0.0126862 0.0121919 0.0119066 0.0118017 0.0115997 0.0114306 0.0112406 0.0110622 0.0108452 0.0107001 0.0106133 0.0107618 0.0112348 0.0120296 0.0132875 0.01474 0.0162186 0.0176008 0.0186083 0.0226104 0.0230949 -0.00917011 -0.0616012 -0.0255962 0.0250376 0.0354498 0.0248787 0.0197022 0.0176304 0.016161 0.0149605 0.0137953 0.0130124 0.0124319 0.0120635 0.0118212 0.011628 0.0114796 0.0113385 0.0112275 0.011117 0.0110786 0.0111115 0.0113222 0.0117495 0.0124177 0.0133539 0.0144865 0.0155641 0.0164797 0.0163924 0.015517 0.0130059 -0.00541186 -0.019833 -0.0105689 0.00946137 0.0179309 0.0176384 0.0169768 0.0164793 0.0154862 0.0145601 0.0136195 0.0129514 0.0124311 0.0120786 0.0117819 0.0116184 0.0115089 0.0114306 0.0113983 0.0113925 0.0114557 0.0115775 0.0118187 0.012174 0.0126752 0.0132634 0.0139393 0.0144276 0.0146374 0.0139788 0.0119613 0.00916195 0.000827281 -0.00779513 -0.00262769 0.00925512 0.0132165 0.0149384 0.0152246 0.0152238 0.0146038 0.0139708 0.0132822 0.0127539 0.0123213 0.0120107 0.0116556 0.0115445 0.0114865 0.01147 0.0115034 0.0115731 0.011701 0.0118695 0.0121116 0.0123925 0.0127487 0.0130818 0.0134463 0.0135736 0.0134816 0.0127581 0.0109807 0.00886879 0.00379854 0.000804663 0.00224255 0.00784202 0.0104627 0.0125506 0.013249 0.0136171 0.0134143 0.0131091 0.0127055 0.0123567 0.0120533 0.0118238 0.0114969 0.0114369 0.0114317 0.0114771 0.0115777 0.0117219 0.011916 0.0121328 0.0123839 0.0126131 0.0128541 0.0129941 0.0131129 0.0129625 0.0126433 0.0118307 0.0104262 0.00879311 0.00611746 0.00443793 0.00517367 0.00842524 0.00999107 0.0115745 0.0122082 0.0126 0.012586 0.0124465 0.0122143 0.0119833 0.0117739 0.0116106 0.0112588 0.0112535 0.0113073 0.0114193 0.0115979 0.0118282 0.0121076 0.0123934 0.0126719 0.0128701 0.0130128 0.0130012 0.0129346 0.0126189 0.0122075 0.01144 0.0103939 0.00922874 0.00764504 0.00686453 0.00706639 0.00868167 0.00963546 0.0107327 0.0112875 0.0116648 0.0117764 0.0117574 0.0116594 0.0115318 0.0114097 0.0113141 0.0110015 0.0110386 0.0111446 0.0113144 0.0115675 0.011883 0.0122527 0.0126199 0.0129513 0.0131533 0.0132348 0.0131273 0.0129298 0.0125063 0.012033 0.011294 0.0104857 0.00958299 0.00865014 0.00812801 0.00819788 0.0090413 0.00963527 0.0103363 0.0107663 0.0110624 0.0112037 0.0112298 0.0111988 0.01113 0.0110625 0.0110128 0.0106687 0.0107361 0.0108967 0.011126 0.0114828 0.0119233 0.0124624 0.0129975 0.0134466 0.0136843 0.0136896 0.0134448 0.0130607 0.012505 0.0119507 0.0112298 0.0105831 0.00988052 0.00929843 0.00892058 0.00889065 0.00925734 0.00959116 0.0100064 0.010317 0.0105359 0.0106755 0.0107215 0.0107282 0.010697 0.0106657 0.0106461 
        </DataArray>
        <DataArray Name="vz" NumberOfComponents="1" type="Float32" format="ascii">
0 0 0 0 0 0 0 0 0 0 0 0 0 0 0 0 0 0 0 0 0 0 0 0 0 0 0 0 0 0 0 0 0 0 0 0 0 0 0 0 0 0 0 0 0 0 0 0 0 0 0 0 0 0 0 0 0 0 0 0 0 0 0 0 0 0 0 0 0 0 0 0 0 0 0 0 0 0 0 0 0 0 0 0 0 0 0 0 0 0 0 0 0 0 0 0 0 0 0 0 0 0 0 0 0 0 0 0 0 0 0 0 0 0 0 0 0 0 0 0 0 0 0 0 0 0 0 0 0 0 0 0 0 0 0 0 0 0 0 0 0 0 0 0 0 0 0 0 0 0 0 0 0 0 0 0 0 0 0 0 0 0 0 0 0 0 0 0 0 0 0 0 0 0 0 0 0 0 0 0 0 0 0 0 0 0 0 0 0 0 0 0 0 0 0 0 0 0 0 0 0 0 0 0 0 0 0 0 0 0 0 0 0 0 0 0 0 0 0 0 0 0 0 0 0 0 0 0 0 0 0 0 0 0 0 0 0 0 0 0 0 0 0 0 0 0 0 0 0 0 0 0 0 0 0 0 0 0 0 0 0 0 0 0 0 0 0 0 0 0 0 0 0 0 0 0 0 0 0 0 0 0 0 0 0 0 0 0 0 0 0 0 0 0 0 0 0 0 0 0 0 0 0 0 0 0 0 0 0 0 0 0 0 0 0 0 0 0 0 0 0 0 0 0 0 0 0 0 0 0 0 0 0 0 0 0 0 0 0 0 0 0 0 0 0 0 0 0 0 0 0 0 0 0 0 0 0 0 0 0 0 0 0 0 0 0 0 0 0 0 0 0 0 0 0 0 0 0 0 0 0 0 0 0 0 0 0 0 0 0 0 0 0 0 0 0 0 0 0 0 0 0 0 0 0 0 0 0 0 0 0 0 0 0 0 0 0 0 0 0 0 0 0 0 0 0 0 0 0 0 0 0 0 0 0 0 0 0 0 0 0 0 0 0 0 0 0 0 0 0 0 0 0 0 0 0 0 0 0 0 0 0 0 0 0 0 0 0 0 0 0 0 0 0 0 0 0 0 0 0 0 0 0 0 0 0 0 0 0 0 0 0 0 0 0 0 0 0 0 0 0 0 0 0 0 0 0 0 0 0 0 0 0 0 0 0 0 0 0 0 0 0 0 0 0 0 0 0 0 0 0 0 0 0 0 0 0 0 0 0 0 0 0 0 0 0 0 0 0 0 0 0 0 0 0 0 0 0 0 0 0 0 0 0 0 0 0 0 0 0 0 0 0 0 0 0 0 0 0 0 0 0 0 0 0 0 0 0 0 0 0 0 0 0 0 0 0 0 0 0 0 0 0 0 0 0 0 0 0 0 0 0 0 0 0 0 0 0 0 0 0 0 0 0 0 0 0 0 0 0 0 0 0 0 0 0 0 0 0 0 0 0 0 0 0 0 0 0 0 0 0 0 0 0 0 0 0 0 0 0 0 0 0 0 0 0 0 0 0 0 0 0 0 0 0 0 0 0 0 0 0 0 0 0 0 0 0 0 0 0 0 0 0 0 0 0 0 0 0 0 0 0 0 0 0 0 0 0 0 0 0 0 0 0 0 0 0 0 0 0 0 0 0 0 0 0 0 0 0 0 0 0 0 0 0 0 0 0 0 0 0 0 0 0 0 0 0 0 0 0 0 0 0 0 0 0 0 0 0 0 0 0 0 0 0 0 0 0 0 0 0 0 0 0 0 0 0 0 0 0 0 0 0 0 0 0 0 0 0 0 0 0 0 0 0 0 0 0 0 0 0 0 0 0 0 0 0 0 0 0 0 0 0 0 0 0 0 0 0 0 0 0 0 0 0 0 0 0 0 0 0 0 0 0 0 0 0 0 0 0 0 0 0 0 0 0 0 0 0 0 0 0 0 0 0 0 0 0 0 0 0 0 0 0 0 0 0 0 0 0 0 0 0 0 0 0 0 0 0 0 0 0 0 0 0 0 0 0 0 0 0 0 0 0 0 0 0 0 0 0 0 0 0 0 0 0 0 0 0 0 0 0 0 0 0 0 0 0 0 0 0 0 0 0 0 0 0 0 0 0 0 0 0 0 0 0 0 0 0 0 0 0 0 0 0 0 0 0 0 0 0 0 0 0 0 0 0 0 0 0 0 0 0 0 0 0 0 0 0 0 0 0 0 0 0 0 0 0 0 0 0 0 0 0 0 0 0 0 0 0 0 0 0 0 0 0 0 0 0 0 0 0 0 0 0 0 0 0 0 0 0 0 0 0 0 0 0 0 0 0 0 0 0 0 
        </DataArray>
        <DataArray Name="p" NumberOfComponents="1" type="Float32" format="ascii">