<?xml version="1.0"?>
<VTKFile type="StructuredGrid" version="0.1" byte_order="LittleEndian">
  <StructuredGrid WholeExtent="0 32 0 32 0 1">
    <Piece Extent="0 32 0 32 0 1">
      <PointData>
      </PointData>
      <CellData>
        <DataArray Name="vx" NumberOfComponents="1" type="Float32" format="ascii">
0.0215389 0.0218328 0.0220548 0.0221556 0.0220904 0.0217916 0.0213798 0.0207902 0.020024 0.0194436 0.018986 0.018631 0.018505 0.0185383 0.0186734 0.018844 0.0189964 0.0190923 0.0191433 0.0191254 0.0191047 0.0191276 0.0191694 0.0192626 0.019395 0.019567 0.0197737 0.0200117 0.0202785 0.0205717 0.0208866 0.0212145 0.0217816 0.0221994 0.0225489 0.0227557 0.0227332 0.0223328 0.0218215 0.0210186 0.0198712 0.0190986 0.0184834 0.0179616 0.0178246 0.0179222 0.0181562 0.018439 0.0187026 0.0189041 0.0190827 0.0191391 0.0191808 0.0192628 0.0193008 0.01938 0.0194795 0.0196176 0.0197953 0.0200161 0.0202822 0.0205956 0.0209556 0.0213565 0.0220402 0.0226371 0.0231816 0.0235752 0.023646 0.0230803 0.0225859 0.0214719 0.0194863 0.0185034 0.0178186 0.0170393 0.0169201 0.0171708 0.0175826 0.0180414 0.0184492 0.0187619 0.0190948 0.0191812 0.0192544 0.0194062 0.01941 0.0194704 0.0195281 0.0196284 0.0197743 0.0199757 0.02024 0.0205754 0.0209884 0.0214809 0.0222858 0.0231491 0.0240066 0.0247603 0.0249999 0.0241048 0.0233814 0.021895 0.0191968 0.0179854 0.0169096 0.0156154 0.0156248 0.0162324 0.0169482 0.0176748 0.0182627 0.0186877 0.0192394 0.0192453 0.0193071 0.0196035 0.01952 0.0195523 0.0195446 0.0195951 0.0196991 0.0198728 0.0201281 0.0204808 0.0209489 0.0215504 0.0224288 0.0236504 0.024948 0.0263596 0.0269326 0.0255454 0.0231068 0.0214239 0.0202123 0.0182716 0.0158214 0.0137722 0.0137933 0.0150972 0.0162831 0.0173943 0.0181439 0.018649 0.0195997 0.0194143 0.0194171 0.0199272 0.0196125 0.0196099 0.0195102 0.0195015 0.0195527 0.0196866 0.0199179 0.0202717 0.0207815 0.0214921 0.0223852 0.0241315 0.0261865 0.0290044 0.0305546 0.0287245 0.0251736 0.0221501 0.0198905 0.0164976 0.0131318 0.0102724 0.0107501 0.0138014 0.0157249 0.0173768 0.0182755 0.0188638 0.0204594 0.0192181 0.0190153 0.0205081 0.0198202 0.0197369 0.0194652 0.0193598 0.0193312 0.0194027 0.0195837 0.0199064 0.0204237 0.0212255 0.0218708 0.0241815 0.0271109 0.0324731 0.0359218 0.0322831 0.0269289 0.0229355 0.0191921 0.0150643 0.00984934 0.00409368 0.00607112 0.0123817 0.0155105 0.0178515 0.0181974 0.0184025 0.0201114 0.017775 0.0190579 0.021628 0.0197403 0.0196145 0.0192261 0.0190751 0.0189886 0.0189936 0.0190955 0.0193338 0.0197802 0.0205818 0.0204461 0.023185 0.027136 0.0389405 0.0466737 0.0376153 0.0281987 0.0235629 0.0190642 0.0148311 0.00681184 -0.00402845 0.000602932 0.0123693 0.016666 0.0193847 0.0196945 0.0199517 0.0200452 0.0226928 0.0271258 0.0249033 0.0210304 0.0199615 0.0191566 0.0188051 0.0185962 0.0184902 0.0184579 0.0185215 0.0187483 0.0193285 0.0181963 0.0207045 0.0252641 0.0403823 0.0572527 0.0455528 0.0283777 0.0237857 0.0192881 0.0157309 0.00237042 -0.014407 -0.00327978 0.0147204 0.020695 0.0240479 0.0280374 0.0289676 0.0234655 0.0217525 0.0188963 0.0169094 0.0186165 0.0182792 0.0182921 0.0181489 0.0180201 0.0178701 0.0177015 0.0175299 0.017413 0.0175469 0.0127117 0.01004 0.0102847 0.00512538 0.0335879 0.0437739 0.018262 0.0204598 0.020865 0.0241605 0.00458394 0.00134829 0.0234187 0.027985 0.0296879 0.0279985 0.0257522 0.0239805 0.0212224 0.019044 0.0155581 0.0145798 0.017263 0.0173988 0.0176475 0.0175991 0.0174834 0.0172575 0.0168926 0.0163291 0.0154957 0.014247 0.00912905 0.00354328 -0.00433118 -0.0238454 -0.0497861 -0.0286891 -0.00121723 0.0131805 0.0263525 0.0400883 0.0651089 0.0954038 0.0791719 0.0502732 0.0406378 0.0339978 0.0295581 0.0265358 0.0239871 0.0223551 0.0201387 0.0180141 0.0178363 0.0174197 0.0173433 0.0172341 0.0170906 0.0168174 0.0163355 0.0155345 0.0142619 0.0122179 0.00417039 -0.00677084 -0.029691 -0.0661291 -0.169379 -0.135842 -0.0336997 -0.00203851 0.0376493 0.0666391 0.1613 0.209681 0.121851 0.0758258 0.0520609 0.0399704 0.0335169 0.0293905 0.0271173 0.0250932 0.0213058 0.0185015 0.0174756 0.0169246 0.0168667 0.0168578 0.0167998 0.016569 0.0160503 0.0150662 0.0132953 0.0100985 0.0114638 0.00797132 0.00586874 -0.0064446 0.00384323 0.0266531 0.0113135 0.0190432 0.0190226 0.0269405 0.0100007 0.0350105 0.0505403 0.0380081 0.0361905 0.0332588 0.0315092 0.0295792 0.0273983 0.0243795 0.0199667 0.0171287 0.0163842 0.0160712 0.0163042 0.0165453 0.0167053 0.0166809 0.0164151 0.0158451 0.0148991 0.0134202 0.0158794 0.0165579 0.0207606 0.0321976 0.0625179 0.0546299 0.0239152 0.0215328 0.0176525 0.0169312 -0.0120078 -0.0222103 0.00822756 0.0220116 0.0278759 0.0300429 0.0310743 0.0309731 0.0284083 0.0238132 0.0176838 0.0143484 0.0145042 0.0147343 0.0156157 0.0162815 0.016768 0.0170094 0.0170215 0.016827 0.0164708 0.0160454 0.0196077 0.0222238 0.0272677 0.0408123 0.052777 0.0412807 0.0272014 0.022706 0.0164966 0.0124854 4.51767e-05 -0.0128686 -0.00159189 0.0146933 0.0222784 0.0277905 0.0318725 0.0342165 0.0308375 0.0235685 0.0135121 0.00930312 0.0118149 0.0129733 0.0149544 0.016178 0.0170496 0.0175603 0.017835 0.0179847 0.0181509 0.0185674 0.0213951 0.0238458 0.0276646 0.0355083 0.0417385 0.0350714 0.0261745 0.0219699 0.0168046 0.0129527 0.00514484 -0.0013022 0.00493303 0.0142854 0.0209327 0.0278272 0.034771 0.0421369 0.0357952 0.0223968 0.00504129 -0.000875029 0.00805986 0.0109043 0.0146363 0.0164505 0.0176627 0.0183392 0.01875 0.0190664 0.0194583 0.0201469 0.0220356 0.0235462 0.0256958 0.0276939 0.0297745 0.0272978 0.0230479 0.0207933 0.016976 0.0145747 0.0104852 0.00796863 0.0106631 0.0145086 0.0199438 0.0283307 0.0429677 0.0626688 0.0470988 0.0270505 -0.00131259 -0.0165165 0.00445809 0.00919313 0.0151208 0.0173464 0.0187279 0.0193789 0.0197492 0.0200448 0.0204273 0.0210417 0.0223301 0.0232721 0.0244117 0.0248663 0.0250836 0.0231626 0.0209965 0.019859 0.0170463 0.0155694 0.0131889 0.0108296 0.0110094 0.012227 0.0156535 0.0247356 0.0453636 0.0978546 0.0805675 0.0313599 -0.0285726 -0.0470247 0.00507138 0.0119169 0.0190214 0.0201986 0.0208118 0.0208825 0.0208953 0.0209704 0.0211949 0.0216312 0.0224038 0.0229872 0.0236475 0.0241416 0.0241494 0.0244267 0.0228129 0.0195377 0.0171322 0.0137077 0.0112634 0.0103116 0.0088895 0.00778191 0.00520488 0.00645243 -0.00381907 0.0161135 0.0472682 0.0472016 -0.00158367 -0.0190613 0.0092345 0.0170551 0.022287 0.022715 0.0226406 0.0222244 0.0218912 0.0217198 0.0217455 0.021975 0.0223355 0.0226257 0.0229205 0.0230958 0.0229206 0.0230326 0.0217156 0.0190672 0.0171233 0.0141954 0.0116028 0.00942851 0.00522094 -0.00234506 -0.0177811 -0.0494201 -0.108992 -0.260556 -0.159964 0.0562841 0.220029 0.244278 0.104073 0.0680028 0.0434305 0.0327407 0.0272221 0.0244757 0.0230792 0.0224004 0.0221394 0.0221466 0.0221722 0.0222885 0.0223844 0.0223837 0.0221084 0.0217551 0.0206979 0.0189685 0.0173957 0.0153893 0.0134818 0.0117483 0.00926803 0.00610227 -0.000433893 -0.00636531 -0.0343526 -0.0467363 -0.00134107 -0.0206906 0.0617909 0.104319 0.0532306 0.0430905 0.0326136 0.028413 0.0256001 0.0239709 0.0229963 0.0224479 0.0221844 0.0221151 0.0219509 0.0219656 0.0219443 0.0218334 0.0215272 0.0210991 0.0202631 0.0190399 0.0178374 0.0164392 0.0151479 0.0140574 0.0129548 0.0121256 0.0122033 0.0156762 0.0278203 0.0596298 0.0454449 -0.020195 -0.0382019 -0.00511022 0.0166171 0.0251433 0.0255857 0.0249868 0.0239928 0.0231818 0.0226058 0.0222406 0.0220405 0.0219592 0.0217103 0.0216816 0.0216079 0.0214524 0.021155 0.0207345 0.020083 0.0192265 0.0183654 0.0174715 0.0167454 0.0163363 0.0164219 0.0173111 0.0207881 0.0263471 0.0477958 0.0605406 0.0359405 0.00520467 -0.0168948 -0.0104111 0.0104556 0.0179527 0.0210499 0.0220626 0.0222656 0.0221665 0.0220053 0.0218676 0.0217782 0.0217324 0.0214795 0.0214431 0.0213557 0.0211946 0.0209289 0.0205645 0.0200651 0.0194607 0.0188657 0.0183165 0.017957 0.0179234 0.0184164 0.0196186 0.0226741 0.0266524 0.0379578 0.0432432 0.0288554 0.0108786 -0.000661811 0.0015432 0.0108936 0.0158577 0.0188151 0.0202722 0.0209858 0.0212945 0.0214184 0.0214639 0.0214813 0.0214873 0.0212807 0.0212566 0.0211781 0.0210331 0.0208076 0.0205064 0.0201256 0.019696 0.0192919 0.0189679 0.0188295 0.0189868 0.0195924 0.020746 0.0230113 0.0255658 0.0305744 0.0313283 0.0250757 0.0152458 0.00738238 0.00867386 0.0126995 0.0157425 0.0179663 0.0193336 0.020169 0.0206549 0.020938 0.0211052 0.0212055 0.0212621 0.0211278 0.0211251 0.0210666 0.0209466 0.0207607 0.0205156 0.0202204 0.0199048 0.0196223 0.0194255 0.0193898 0.0195923 0.0201233 0.0210199 0.0224939 0.0239992 0.0261846 0.0260478 0.0226594 0.0170862 0.0126199 0.0129005 0.0145884 0.016343 0.0178522 0.0189495 0.0197208 0.0202418 0.0205912 0.0208257 0.0209819 0.02108 0.0210277 0.0210498 0.0210155 0.0209222 0.0207702 0.020567 0.0203271 0.0200776 0.0198602 0.0197207 0.0197127 0.019887 0.0202901 0.0209245 0.0218341 0.0226795 0.0235671 0.0231587 0.0211122 0.0181089 0.0156781 0.0154038 0.0160638 0.0170472 0.018037 0.0188649 0.0195155 0.0200049 0.0203666 0.0206313 0.0208218 0.0209519 0.0209826 0.0210308 0.021022 0.0209538 0.0208273 0.02065 0.0204379 0.0202157 0.020018 0.0198858 0.0198582 0.0199677 0.0202358 0.020648 0.021183 0.0216355 0.0219621 0.0215667 0.0203371 0.0186316 0.0172343 0.0168962 0.0171394 0.0176892 0.0183319 0.0189384 0.0194634 0.0198954 0.0202417 0.0205147 0.0207252 0.0208804 0.0209924 0.0210686 0.0210863 0.0210409 0.0209316 0.0207639 0.0205549 0.0203269 0.0201112 0.0199497 0.0198733 0.0199041 0.0200528 0.0202988 0.0206026 0.0208378 0.0209343 0.0206253 0.0198796 0.0189029 0.0180933 0.0178088 0.0178876 0.018204 0.0186295 0.019075 0.0194947 0.0198681 0.02019 0.0204617 0.0206859 0.0208633 0.0210553 0.0211643 0.0212121 0.0211891 0.0210902 0.0209162 0.0206873 0.0204229 0.0201534 0.019933 0.0197876 0.0197348 0.0197851 0.019916 0.0200869 0.020215 0.0202382 0.0200326 0.0195941 0.0190368 0.0185698 0.0183737 0.0184014 0.0185979 0.0188917 0.0192261 0.0195653 0.0198889 0.0201875 0.0204568 0.0206941 0.0208956 0.0211694 0.0213206 0.0214068 0.0214099 0.0213177 0.0211215 0.0208507 0.0205183 0.0201539 0.0198462 0.0196147 0.0194742 0.0194464 0.0195057 0.0196125 0.0197051 0.0197316 0.0196279 0.0193964 0.0190962 0.0188419 0.0187306 0.018753 0.0188906 0.0191058 0.0193659 0.0196466 0.0199323 0.0202135 0.0204842 0.020739 0.0209708 0.0213321 0.0215417 0.0216822 0.0217227 0.0216388 0.0214027 0.0210681 0.0206306 0.0201155 0.0196894 0.0193527 0.0191151 0.0190285 0.0190545 0.0191505 0.0192594 0.0193327 0.0193282 0.0192501 0.0191175 0.0190024 0.0189636 0.0189962 0.0191053 0.0192721 0.0194817 0.0197205 0.0199786 0.0202496 0.0205281 0.0208081 0.0210807 
        </DataArray>
        <DataArray Name="vy" NumberOfComponents="1" type="Float32" format="ascii">
0.0100428 0.0103162 0.0107004 0.0111828 0.0117334 0.0122772 0.0126635 0.0130307 0.0130517 0.0127862 0.0124608 0.0119168 0.0113073 0.010713 0.0101751 0.00971861 0.00935471 0.00908844 0.00893054 0.00892109 0.00895222 0.0090995 0.00925143 0.00940419 0.00952612 0.00961161 0.00966198 0.00968649 0.00969946 0.00971914 0.00976696 0.00986668 0.00968532 0.0100034 0.0104897 0.0111302 0.0119092 0.0126857 0.0131979 0.0138967 0.0138842 0.0133541 0.0129395 0.0121863 0.011348 0.0106013 0.00998052 0.00951046 0.00917795 0.00896322 0.00884761 0.00891465 0.00890338 0.0090644 0.00918201 0.00930502 0.00938983 0.00943811 0.00945124 0.00943879 0.00941525 0.00940028 0.00941898 0.00950207 0.0091992 0.00954323 0.0101489 0.011001 0.0121533 0.0132663 0.0139209 0.0149739 0.014926 0.0141488 0.0136827 0.0125764 0.0113368 0.0103766 0.00964693 0.00916867 0.00888276 0.00872884 0.00866639 0.0088855 0.0087728 0.00901179 0.00911358 0.00923089 0.0092859 0.00929599 0.00926343 0.00919974 0.00912011 0.0090456 0.00900537 0.00903894 0.00852381 0.00883377 0.00953708 0.0106001 0.0123188 0.0138484 0.0146159 0.0173488 0.0169604 0.0148723 0.0144477 0.013073 0.0111671 0.00994339 0.00909313 0.00864388 0.00844604 0.0083386 0.00833332 0.00884695 0.00857137 0.00901127 0.00909287 0.00921376 0.00923231 0.00919584 0.00910539 0.00897418 0.0088163 0.00865208 0.00851259 0.00844516 0.00761443 0.00780112 0.00859704 0.00998145 0.0128212 0.0152366 0.0158991 0.0190199 0.0186432 0.0163529 0.0163592 0.0139903 0.0105745 0.00906389 0.0081431 0.00784065 0.00784505 0.00785319 0.00802729 0.00917356 0.0081264 0.00891863 0.00903454 0.00921864 0.0092191 0.00913922 0.00898378 0.00877134 0.00851373 0.00822694 0.00793928 0.0077017 0.006387 0.00623245 0.00691834 0.00839948 0.0131706 0.0175136 0.0187413 0.0204897 0.0204757 0.0191626 0.0187967 0.015214 0.00947952 0.00762847 0.00678198 0.0068551 0.00723792 0.00689223 0.00707965 0.00918371 0.00763775 0.00933651 0.00935016 0.00946235 0.00935462 0.00917832 0.00892818 0.00861423 0.00823515 0.00779181 0.00729727 0.00679057 0.00472923 0.00377387 0.00378049 0.00467399 0.0136593 0.0210573 0.0227828 0.0240854 0.0241934 0.0232604 0.0227068 0.0177667 0.00572205 0.00419948 0.00420027 0.00513599 0.00617513 0.00604518 0.00769674 0.0124819 0.0055614 0.00834846 0.00925322 0.00955862 0.00947836 0.0092499 0.00892361 0.00851485 0.00801107 0.00738902 0.00662623 0.00571358 0.00307075 0.00108535 -0.000409892 -0.000591924 0.0131003 0.0264354 0.0273208 0.0279549 0.0281598 0.0280513 0.0288014 0.0201398 -0.000117698 -0.000465784 0.00157437 0.00469438 0.00734824 0.0046818 0.00589131 0.00995357 0.0021065 0.0110118 0.0113333 0.0104309 0.00995991 0.00949197 0.00903361 0.00852343 0.00791008 0.00712935 0.00610613 0.00476196 0.000698149 -0.00389225 -0.0123433 -0.0185197 0.0161967 0.0430119 0.0370648 0.0341797 0.0338808 0.0359648 0.0427855 0.0276505 -0.015431 -0.0118324 -0.00392359 0.00112626 0.00461238 0.00609885 0.00727523 0.00715894 0.00367807 0.0137293 0.0129633 0.0112629 0.0104061 0.00974985 0.00920002 0.00863716 0.00796734 0.00707197 0.00577521 0.00382053 0.000953744 -0.00474703 -0.016184 -0.0310726 0.00276686 0.0558682 0.0446804 0.035062 0.0341611 0.0419311 0.0546001 0.0311591 -0.0340329 -0.0204901 -0.00688714 -0.000375528 0.00340999 0.00886499 0.0122453 0.0111877 0.00791318 0.0108636 0.0110689 0.0107378 0.0102514 0.00978849 0.00933635 0.00885902 0.0082837 0.00749292 0.00628798 0.00434045 0.00344262 -0.00234146 -0.0131489 -0.0390376 -0.0305096 0.0748227 0.0575566 0.0364993 0.0349544 0.0535696 0.0737332 0.00335424 -0.0432391 -0.0193067 -0.00443765 0.00325204 0.0075366 0.0104673 0.0141791 0.0122371 0.0100787 0.0106445 0.0107494 0.0106721 0.0102794 0.00989213 0.00953808 0.00920846 0.00884957 0.00836613 0.00758667 0.00616639 0.0111368 0.0127349 0.015922 0.0233989 0.0205664 -0.0123952 -0.00531191 0.000624799 0.000415457 -0.00635393 -0.0142431 0.0255831 0.0257976 0.0170661 0.0131527 0.0120339 0.012328 0.0139513 0.0163914 0.014467 0.0130369 0.0125251 0.0117849 0.0110481 0.0104368 0.0100092 0.00974803 0.0096239 0.00961156 0.00970362 0.0099227 0.0103433 0.0179405 0.0256663 0.040694 0.0710092 0.0483656 -0.0661454 -0.0490796 -0.0255389 -0.0244169 -0.0461739 -0.0680878 0.0404601 0.0720162 0.0430435 0.026527 0.0191846 0.0166723 0.0167635 0.0183285 0.0179236 0.016742 0.0141743 0.0125788 0.0111995 0.0103888 0.00994835 0.00981244 0.00991654 0.0102528 0.0108877 0.0120129 0.0140594 0.0177822 0.0227583 0.0320503 0.0423837 0.00214837 -0.0268509 -0.0177026 -0.0142048 -0.0140498 -0.0165997 -0.0269158 -0.00504704 0.0412898 0.0320801 0.0224108 0.0180421 0.0169091 0.0184002 0.0215398 0.0219476 0.0208655 0.0155097 0.0130758 0.0109325 0.00997897 0.00958236 0.00961161 0.00992664 0.010491 0.0113466 0.0126308 0.0145993 0.016754 0.0198841 0.0240375 0.0263193 0.00911216 -0.0150928 -0.0137436 -0.013105 -0.01327 -0.0139524 -0.0171164 0.00460091 0.024145 0.0219918 0.017551 0.0150553 0.0153361 0.0187288 0.0263587 0.0279637 0.0277941 0.0162185 0.0127455 0.00973972 0.00891545 0.00876014 0.00908423 0.00965485 0.010414 0.0113833 0.0126533 0.0143705 0.0146265 0.0157811 0.0159562 0.0143736 0.00767146 -0.00196877 -0.00446625 -0.00602818 -0.00637886 -0.00555206 -0.00431482 0.00418773 0.010774 0.0114004 0.0102822 0.00906745 0.0108127 0.019868 0.0328861 0.0364914 0.037099 0.0148478 0.0109044 0.00731407 0.00710563 0.00748273 0.0082732 0.00916109 0.0100918 0.0110753 0.0121519 0.0133517 0.0130777 0.0133577 0.0125095 0.0103398 0.00824692 0.00303724 -0.000603596 -0.00232136 -0.00273274 -0.00210338 3.56712e-05 0.00432318 0.00590267 0.00559905 0.00347492 0.000296507 0.000282966 0.0131922 0.0542517 0.0579078 0.0607705 0.00622275 0.00252431 0.000995896 0.00340289 0.00539224 0.0071465 0.00854072 0.00968936 0.0106858 0.0115933 0.0124225 0.0121031 0.0121137 0.0115455 0.0100908 0.00845074 0.00607953 0.000779959 -0.00017601 -0.000327741 -0.000512961 0.00329257 0.00452052 0.00452241 0.00251514 -0.0022383 -0.0123428 -0.0230841 0.0180066 0.0693234 0.0628338 0.0878324 0.00399565 -0.00635438 -0.00286569 0.00127144 0.00437022 0.00664881 0.00828505 0.00949471 0.0104272 0.0111697 0.0117454 0.0114399 0.0112978 0.0107936 0.00980757 0.00902812 0.00750815 0.00266441 0.00217513 0.00218514 0.00169619 0.00523113 0.0055562 0.00400683 -0.000218518 -0.0104044 -0.0325178 -0.0753714 -0.0508921 0.15603 0.169855 0.17259 -0.0629192 -0.0584851 -0.0218851 -0.00652011 0.0017757 0.00590518 0.00816473 0.00949455 0.010348 0.0109245 0.0112924 0.0110849 0.0108637 0.0103861 0.00960048 0.0086266 0.00753803 0.00553189 0.0050895 0.00513097 0.00525998 0.00692246 0.00782975 0.00838798 0.00820615 0.00668342 0.0022207 -0.00729089 -0.0133332 0.0196507 0.0332647 0.14476 0.0199932 -0.0205189 -0.00483813 0.00266418 0.00657932 0.00846801 0.00955075 0.0102165 0.0106564 0.0109448 0.0110954 0.0109423 0.0106885 0.0102823 0.00971242 0.00901989 0.00831814 0.00707804 0.00685976 0.00705887 0.00756872 0.0092987 0.0111179 0.0139238 0.0188221 0.0282364 0.0478959 0.0812446 0.0236776 -0.145954 -0.13583 -0.00508065 0.0776302 0.0615684 0.0325056 0.0202701 0.0148616 0.0125814 0.0116452 0.0112896 0.0111721 0.0111297 0.0110732 0.0109091 0.0106478 0.0103022 0.00987124 0.00937096 0.0089178 0.00835091 0.00830286 0.00860892 0.0092725 0.0106913 0.0125357 0.0152812 0.0196957 0.0265101 0.0408911 0.054357 -0.0188971 -0.0592555 -0.0579554 -0.0211804 0.0512974 0.0452131 0.0274986 0.0200448 0.015844 0.0136771 0.012507 0.0118722 0.0115159 0.0112918 0.0111097 0.0109288 0.0106847 0.0104063 0.0100961 0.00976755 0.00949783 0.00923303 0.00929989 0.00965379 0.0103282 0.0115311 0.0131369 0.0153966 0.018597 0.0228855 0.0290568 0.0325652 -0.00623793 -0.0409787 -0.0394957 -0.00981193 0.0241217 0.0279783 0.0226825 0.0187796 0.0159092 0.0140645 0.0129027 0.0121774 0.0117153 0.0114007 0.011156 0.010957 0.0107464 0.010532 0.0103165 0.0101126 0.00996914 0.00988459 0.0100118 0.010354 0.0109383 0.0118505 0.0130224 0.0145013 0.0161938 0.0179385 0.0184135 0.0169882 -0.00239813 -0.0126962 -0.0164663 -0.0023851 0.0156969 0.0186324 0.0179961 0.0164303 0.0149125 0.0137013 0.0128159 0.0121898 0.0117486 0.0114274 0.0111759 0.0109714 0.0108058 0.0106534 0.0105166 0.0104053 0.0103484 0.0103565 0.0105038 0.0108006 0.0112604 0.0119096 0.0126932 0.0135785 0.0144003 0.0149807 0.014222 0.0123282 0.0025336 -0.00376184 -0.00721122 0.00242076 0.0110382 0.0139078 0.0147121 0.0143923 0.0137489 0.0130696 0.0124839 0.0120169 0.0116567 0.0113787 0.0111574 0.0109619 0.0108479 0.0107551 0.0106852 0.0106443 0.0106478 0.0107049 0.0108493 0.0110866 0.0114176 0.0118393 0.0123009 0.0127396 0.0129986 0.0129181 0.0118213 0.0100305 0.00484041 0.00190787 0.000733039 0.0048135 0.00927404 0.0115599 0.0126388 0.0128646 0.0127095 0.012396 0.012056 0.011746 0.0114847 0.0112721 0.0111009 0.010926 0.0108665 0.0108318 0.010822 0.010839 0.0108885 0.0109734 0.011106 0.0112842 0.0115016 0.0117445 0.0119701 0.01212 0.0120826 0.0117481 0.0107718 0.00938426 0.00655415 0.00490125 0.00422915 0.00645168 0.00884471 0.010448 0.0113957 0.0117942 0.0118754 0.0117831 0.0116179 0.0114367 0.0112684 0.0111256 0.0110118 0.0108639 0.0108599 0.0108827 0.0109308 0.0110014 0.0110922 0.0111983 0.01132 0.0114475 0.0115709 0.0116766 0.0117315 0.0116937 0.0114942 0.011068 0.0102628 0.00922623 0.007631 0.006692 0.00639827 0.00748706 0.00881234 0.00989189 0.0106361 0.0110488 0.0112286 0.0112588 0.0112077 0.011122 0.0110311 0.0109524 0.0108952 0.0107754 0.010827 0.0109088 0.0110171 0.0111441 0.01128 0.0114104 0.0115295 0.0116177 0.0116648 0.0116649 0.0115943 0.011432 0.0111435 0.0107 0.0100475 0.00927944 0.00832372 0.00774511 0.00758073 0.00815055 0.00891604 0.00962802 0.0101779 0.0105367 0.0107377 0.0108244 0.0108396 0.010818 0.0107854 0.0107602 0.0107543 0.0106581 0.0107654 0.0109101 0.0110858 0.0112791 0.0114719 0.0116367 0.0117678 0.0118282 0.0118105 0.0117247 0.011552 0.0112947 0.0109456 0.0105016 0.00995545 0.0093689 0.00875279 0.00837142 0.00826955 0.00856472 0.00901816 0.00948656 0.00988354 0.0101731 0.0103598 0.010464 0.0105117 0.0105282 0.0105352 0.0105506 0.0105883 0.0105058 0.0106691 0.0108833 0.0111392 0.0114169 0.0116878 0.0119034 0.0120686 0.0121111 0.0120307 0.0118675 0.0115958 0.0112478 0.0108392 0.0103863 0.00990285 0.00943071 0.00899743 0.00872632 0.00865342 0.00880697 0.00908599 0.00939686 0.00968076 0.00990422 0.0100611 0.0101598 0.0102163 0.0102495 0.0102784 0.0103207 0.0103923 0.0103068 0.0105261 0.010819 0.0111742 0.0115647 0.0119468 0.0122348 0.0124759 0.0125068 0.012346 0.0121041 0.0117173 0.011261 0.0107758 0.0102936 0.00983683 0.00943253 0.00910169 0.00889688 0.00884861 0.00892608 0.00911133 0.00932306 0.00952772 0.00969509 0.00981693 0.00989621 0.00994395 0.0099756 0.010009 0.0100631 0.0101566 
        </DataArray>
        <DataArray Name="vz" NumberOfComponents="1" type="Float32" format="ascii">
0 0 0 0 0 0 0 0 0 0 0 0 0 0 0 0 0 0 0 0 0 0 0 0 0 0 0 0 0 0 0 0 0 0 0 0 0 0 0 0 0 0 0 0 0 0 0 0 0 0 0 0 0 0 0 0 0 0 0 0 0 0 0 0 0 0 0 0 0 0 0 0 0 0 0 0 0 0 0 0 0 0 0 0 0 0 0 0 0 0 0 0 0 0 0 0 0 0 0 0 0 0 0 0 0 0 0 0 0 0 0 0 0 0 0 0 0 0 0 0 0 0 0 0 0 0 0 0 0 0 0 0 0 0 0 0 0 0 0 0 0 0 0 0 0 0 0 0 0 0 0 0 0 0 0 0 0 0 0 0 0 0 0 0 0 0 0 0 0 0 0 0 0 0 0 0 0 0 0 0 0 0 0 0 0 0 0 0 0 0 0 0 0 0 0 0 0 0 0 0 0 0 0 0 0 0 0 0 0 0 0 0 0 0 0 0 0 0 0 0 0 0 0 0 0 0 0 0 0 0 0 0 0 0 0 0 0 0 0 0 0 0 0 0 0 0 0 0 0 0 0 0 0 0 0 0 0 0 0 0 0 0 0 0 0 0 0 0 0 0 0 0 0 0 0 0 0 0 0 0 0 0 0 0 0 0 0 0 0 0 0 0 0 0 0 0 0 0 0 0 0 0 0 0 0 0 0 0 0 0 0 0 0 0 0 0 0 0 0 0 0 0 0 0 0 0 0 0 0 0 0 0 0 0 0 0 0 0 0 0 0 0 0 0 0 0 0 0 0 0 0 0 0 0 0 0 0 0 0 0 0 0 0 0 0 0 0 0 0 0 0 0 0 0 0 0 0 0 0 0 0 0 0 0 0 0 0 0 0 0 0 0 0 0 0 0 0 0 0 0 0 0 0 0 0 0 0 0 0 0 0 0 0 0 0 0 0 0 0 0 0 0 0 0 0 0 0 0 0 0 0 0 0 0 0 0 0 0 0 0 0 0 0 0 0 0 0 0 0 0 0 0 0 0 0 0 0 0 0 0 0 0 0 0 0 0 0 0 0 0 0 0 0 0 0 0 0 0 0 0 0 0 0 0 0 0 0 0 0 0 0 0 0 0 0 0 0 0 0 0 0 0 0 0 0 0 0 0 0 0 0 0 0 0 0 0 0 0 0 0 0 0 0 0 0 0 0 0 0 0 0 0 0 0 0 0 0 0 0 0 0 0 0 0 0 0 0 0 0 0 0 0 0 0 0 0 0 0 0 0 0 0 0 0 0 0 0 0 0 0 0 0 0 0 0 0 0 0 0 0 0 0 0 0 0 0 0 0 0 0 0 0 0 0 0 0 0 0 0 0 0 0 0 0 0 0 0 0 0 0 0 0 0 0 0 0 0 0 0 0 0 0 0 0 0 0 0 0 0 0 0 0 0 0 0 0 0 0 0 0 0 0 0 0 0 0 0 0 0 0 0 0 0 0 0 0 0 0 0 0 0 0 0 0 0 0 0 0 0 0 0 0 0 0 0 0 0 0 0 0 0 0 0 0 0 0 0 0 0 0 0 0 0 0 0 0 0 0 0 0 0 0 0 0 0 0 0 0 0 0 0 0 0 0 0 0 0 0 0 0 0 0 0 0 0 0 0 0 0 0 0 0 0 0 0 0 0 0 0 0 0 0 0 0 0 0 0 0 0 0 0 0 0 0 0 0 0 0 0 0 0 0 0 0 0 0 0 0 0 0 0 0 0 0 0 0 0 0 0 0 0 0 0 0 0 0 0 0 0 0 0 0 0 0 0 0 0 0 0 0 0 0 0 0 0 0 0 0 0 0 0 0 0 0 0 0 0 0 0 0 0 0 0 0 0 0 0 0 0 0 0 0 0 0 0 0 0 0 0 0 0 0 0 0 0 0 0 0 0 0 0 0 0 0 0 0 0 0 0 0 0 0 0 0 0 0 0 0 0 0 0 0 0 0 0 0 0 0 0 0 0 0 0 0 0 0 0 0 0 0 0 0 0 0 0 0 0 0 0 0 0 0 0 0 0 0 0 0 0 0 0 0 0 0 0 0 0 0 0 0 0 0 0 0 0 0 0 0 0 0 0 0 0 0 0 0 0 0 0 0 0 0 0 0 0 0 0 0 0 0 0 0 0 0 0 0 0 0 0 0 0 0 0 0 0 0 0 0 0 0 0 0 0 0 0 0 0 0 0 0 0 0 0 0 0 0 0 0 0 0 0 0 0 0 0 0 0 0 0 0 0 0 0 0 0 0 0 0 0 0 0 0 0 0 0 0 0 0 0 0 0 0 0 0 
        </DataArray>
        <DataArray Name="p" NumberOfComponents="1" type="Float32" format="ascii">