<?xml version="1.0"?>
<VTKFile type="StructuredGrid" version="0.1" byte_order="LittleEndian">
  <StructuredGrid WholeExtent="0 32 0 32 0 1">
    <Piece Extent="0 32 0 32 0 1">
      <PointData>
      </PointData>
      <CellData>
        <DataArray Name="vx" NumberOfComponents="1" type="Float32" format="ascii">
0.0171271 0.0169397 0.0168323 0.0169381 0.0172511 0.0177484 0.0183842 0.0189616 0.0196203 0.0201978 0.0208403 0.0214373 0.0220402 0.0226341 0.0231472 0.0235415 0.0236715 0.0236767 0.0233545 0.0229128 0.0222441 0.0214674 0.0207729 0.02013 0.0196652 0.019255 0.0189384 0.0186382 0.0183461 0.0180508 0.0177278 0.017432 0.016742 0.0164436 0.0162113 0.0162569 0.0166043 0.017227 0.0180427 0.0187437 0.0195664 0.0202556 0.0210465 0.0217488 0.0224235 0.0230929 0.0236441 0.0240598 0.024098 0.0240859 0.0236416 0.023186 0.0224538 0.0215577 0.0208544 0.0201485 0.0197062 0.0192733 0.0189587 0.018636 0.0183123 0.0179697 0.0175657 0.0171823 0.0162562 0.0157773 0.0152802 0.0151458 0.0154528 0.0162308 0.0173392 0.0182594 0.0194034 0.0202841 0.0213697 0.0222872 0.0231135 0.0239076 0.0245413 0.0249614 0.0248369 0.0247806 0.0241459 0.0236117 0.0227076 0.0215944 0.0208297 0.0200549 0.0196643 0.0192373 0.0189545 0.0186331 0.0182898 0.0179044 0.0174009 0.0169053 0.0156934 0.0148594 0.0137965 0.0129972 0.0128153 0.0134675 0.0148714 0.0163599 0.0184753 0.0203012 0.022515 0.0242804 0.0254713 0.0262467 0.0266414 0.0266265 0.0259727 0.0256833 0.0246693 0.024204 0.0231392 0.0215663 0.02067 0.0197997 0.019516 0.0191428 0.0189407 0.0186648 0.0183309 0.0179223 0.0173049 0.0166612 0.014995 0.0135305 0.0111232 0.00861217 0.00694222 0.0069852 0.00898798 0.0118566 0.0163187 0.0203634 0.0251847 0.0289805 0.0310648 0.0316893 0.0314128 0.0300815 0.0280061 0.0270343 0.0255369 0.0250054 0.0234602 0.0212787 0.0201773 0.0193337 0.0192832 0.0190364 0.0189567 0.0187588 0.0184535 0.0180413 0.0172942 0.0164763 0.0143086 0.0116353 0.006669 0.000123325 -0.00485485 -0.00586977 -0.00303501 0.00253477 0.0115142 0.0201373 0.0305672 0.0388823 0.0428612 0.0433129 0.0412782 0.0364586 0.0310956 0.0282766 0.0256352 0.0261603 0.0251292 0.0215377 0.0195182 0.0185949 0.0189047 0.0189089 0.0190158 0.0189731 0.0187557 0.0184033 0.0175467 0.0165224 0.0137614 0.00937983 -0.000559903 -0.0133981 -0.0208576 -0.0196116 -0.012505 -0.00269148 0.00949505 0.0198266 0.0333443 0.045957 0.053448 0.0564377 0.0559676 0.0472514 0.0357473 0.0297674 0.0278786 0.0281604 0.0255649 0.0214889 0.0180825 0.0175156 0.0185339 0.0189171 0.0192248 0.0193559 0.0192597 0.0190347 0.0181402 0.0170022 0.014316 0.00813786 -0.00679386 -0.0246561 -0.0258263 -0.013719 0.00203975 0.0143723 0.0204601 0.0252143 0.0296837 0.0373256 0.0483996 0.0591367 0.0671933 0.0575633 0.0399542 0.0283821 0.0224392 0.0196343 0.0162818 0.0142972 0.0131247 0.0155035 0.0178757 0.0189658 0.0195225 0.0199495 0.0200916 0.0201678 0.0194293 0.0183876 0.0178854 0.0128725 -0.00635459 -0.0182325 0.00337887 0.0258643 0.0356348 0.0354493 0.0301782 0.0242679 0.0162335 0.0108723 0.0172918 0.0355096 0.0642825 0.0649142 0.0372999 0.0195828 0.000416116 -0.00113327 0.00986219 0.0120403 0.014996 0.0176519 0.0188526 0.0197075 0.0201046 0.0207046 0.0211526 0.0216868 0.0216071 0.0214704 0.025701 0.0260967 0.0146398 0.0258897 0.0485825 0.0540327 0.0510587 0.0424965 0.0324835 0.0231038 0.0124539 0.00324668 0.000685901 0.00425019 0.0248197 0.0469358 0.0320073 0.0240339 0.021187 0.0241469 0.0238469 0.0204912 0.0225235 0.0226325 0.0207258 0.0207764 0.0208436 0.021651 0.0225396 0.0238405 0.0248666 0.0265438 0.0394451 0.0508943 0.0706633 0.0965006 0.0893175 0.0729289 0.0559712 0.0425383 0.0308025 0.021093 0.00979573 -0.00116143 -0.0163843 -0.0282819 -0.0488891 -0.0291171 -0.00636632 0.00343243 0.018149 0.0244293 0.0212332 0.0188929 0.0222329 0.0208268 0.0197241 0.0200863 0.020764 0.0219382 0.023506 0.0255068 0.028501 0.0325197 0.0510547 0.0744562 0.118712 0.144197 0.115678 0.0815854 0.0572817 0.0418065 0.0301891 0.0211363 0.0105469 -0.00108168 -0.0202231 -0.0450383 -0.0883901 -0.100439 -0.0570377 -0.0193842 -0.00162992 0.00160943 0.00653987 0.0149103 0.016606 0.0175755 0.018049 0.0191349 0.0204486 0.0221024 0.0242565 0.0271734 0.0315484 0.0384253 0.0483288 0.0683001 0.106555 0.131749 0.108391 0.0791054 0.0570294 0.0419154 0.0300509 0.0202335 0.00866137 -0.00395396 -0.0239789 -0.0502687 -0.0916595 -0.105179 -0.0619047 -0.0223396 -0.00416891 -0.000391108 0.00380945 0.0124431 0.014124 0.0156864 0.0168645 0.0181625 0.0197489 0.021441 0.0236409 0.0263442 0.0305528 0.0366457 0.0355593 0.0436388 0.0528647 0.0762382 0.0783132 0.0665813 0.0552653 0.0430724 0.0311656 0.0200123 0.00715099 -0.00500701 -0.020644 -0.0350741 -0.0536867 -0.0344272 -0.00942099 -0.000893833 0.0102751 0.0101718 0.0117857 0.0142232 0.0144484 0.0150951 0.0161377 0.0172895 0.0189395 0.0205708 0.0225273 0.0246484 0.0273095 0.0308426 0.0229283 0.0219842 0.0102883 0.0211441 0.0427765 0.0464537 0.0486638 0.0421106 0.0323174 0.0208649 0.00730315 -0.00265618 -0.00730895 -0.00725 0.00588802 0.0366243 0.0333312 0.0244861 0.0221695 0.0181426 0.0167985 0.0164578 0.0151065 0.0150115 0.0158715 0.0167066 0.0181934 0.0195184 0.0209386 0.0222612 0.0231992 0.024353 0.0146171 0.00656384 -0.0113737 -0.0266071 -0.0104038 0.0131889 0.0268582 0.0288414 0.0267259 0.0226285 0.0153265 0.012694 0.0169288 0.0369381 0.067842 0.0714317 0.0494634 0.0360564 0.0293533 0.0231589 0.0208708 0.0189005 0.0157421 0.0148756 0.015764 0.0162948 0.0176363 0.0186838 0.0197136 0.0202841 0.0200589 0.0189868 0.0126514 0.00529267 -0.0093759 -0.0301281 -0.0328275 -0.0232418 -0.013406 0.00020583 0.0115214 0.0209531 0.0311512 0.0429752 0.055867 0.0694348 0.0762455 0.0659477 0.0484042 0.0399581 0.0328227 0.0232658 0.0202355 0.0189958 0.014523 0.0146432 0.017097 0.0173765 0.0182945 0.018712 0.0191719 0.0191662 0.0183747 0.016811 0.0128022 0.00776082 -0.000605879 -0.012797 -0.0182094 -0.0164927 -0.013002 -0.00414366 0.00720674 0.0192118 0.033997 0.0464033 0.0550699 0.0599304 0.0589801 0.0513566 0.0421861 0.0363173 0.0266876 0.0168587 0.0191227 0.0269079 0.017967 0.012556 0.0167057 0.0178134 0.0189124 0.0190494 0.0191712 0.0187712 0.0177426 0.0160474 0.0139916 0.0108155 0.00657562 0.000405035 -0.00241658 -0.0014588 0.000584176 0.00526488 0.0114708 0.0193692 0.0287132 0.0357491 0.0405462 0.0430732 0.0426834 0.0394226 0.0360042 0.0271421 0.0217633 0.0275443 0.0342593 0.044887 0.0331914 0.0178908 0.0209908 0.0214354 0.0217877 0.0209993 0.0202678 0.0192696 0.0179749 0.0163461 0.0151448 0.0131638 0.0110994 0.00864614 0.00786682 0.00869498 0.00990244 0.0121543 0.0150582 0.0188138 0.0233539 0.0267081 0.0292757 0.0307937 0.0315398 0.0315176 0.0296634 0.0324819 0.0385614 0.0385063 0.0250009 0.0102578 0.0180134 0.0234458 0.0213626 0.0228813 0.0228092 0.0221447 0.021088 0.0198364 0.0184437 0.0169237 0.0162127 0.0148384 0.0137369 0.0127335 0.0127946 0.0136659 0.0145501 0.015695 0.016885 0.0184013 0.0203148 0.0217388 0.0230311 0.0236656 0.0238181 0.0211418 0.0185968 0.0127241 0.0121605 0.0208892 0.0232782 0.0231497 0.0415717 0.0511114 0.0394401 0.0324758 0.0276581 0.0250778 0.0227086 0.0208327 0.0191601 0.0176553 0.0169877 0.0159831 0.0152936 0.0148604 0.0150713 0.0157224 0.0163339 0.0169623 0.0175489 0.018205 0.019035 0.0195137 0.0198671 0.0196434 0.018852 0.0160197 0.0134575 0.00955248 0.00906394 0.0130168 0.0148014 0.0227093 0.0467587 0.0542766 0.0414496 0.0338308 0.0284152 0.0255496 0.0230306 0.0211237 0.0195203 0.0181666 0.0175166 0.0167604 0.0162759 0.0160245 0.0161863 0.0166279 0.0170813 0.0175414 0.0179657 0.0183893 0.0189167 0.0192001 0.0193705 0.0190976 0.01782 0.0172277 0.00980778 0.0121165 0.0228805 0.0178213 0.00272857 0.000826676 0.0186078 0.0272951 0.0257813 0.0265415 0.0252531 0.0238375 0.0222253 0.0207884 0.0195299 0.0184387 0.0178401 0.0172785 0.0169263 0.0167664 0.0168761 0.017174 0.0175181 0.017877 0.0182312 0.0185451 0.0189123 0.0190003 0.0190218 0.018283 0.0172674 0.015958 0.0136772 0.00907819 0.00270554 0.0069998 0.0184499 0.0281811 0.0211383 0.0151783 0.0209194 0.0231064 0.0232511 0.0223522 0.0213152 0.0202916 0.0193676 0.018539 0.0180157 0.0176091 0.0173565 0.017251 0.0173336 0.0175564 0.0178499 0.0181812 0.0185481 0.0188976 0.0193432 0.0196131 0.020005 0.0198106 0.0197989 0.0193579 0.0213903 0.0208204 0.0169764 0.0208896 0.0323821 0.0322967 0.0166583 0.0144313 0.0188921 0.0206865 0.0210771 0.0207488 0.0202735 0.0196911 0.0190967 0.0185187 0.0180838 0.0178012 0.0176316 0.0175768 0.0176612 0.0178548 0.0181239 0.0184363 0.0187959 0.0191448 0.0195811 0.0198873 0.0203687 0.0204147 0.0208237 0.02067 0.0227311 0.0255435 0.0274028 0.0271969 0.0271222 0.022141 0.013458 0.0150516 0.0178522 0.0190355 0.0195276 0.0195779 0.0194566 0.0191753 0.018817 0.0184328 0.0180958 0.0179001 0.017792 0.0177786 0.0178769 0.0180682 0.0183382 0.0186583 0.0190394 0.0194309 0.0199215 0.0203501 0.0209886 0.021373 0.0221395 0.0223351 0.0236056 0.0247932 0.0258116 0.024987 0.0234157 0.0204283 0.0165796 0.0172318 0.0179747 0.0185105 0.0188233 0.0189823 0.0189776 0.0188366 0.0186059 0.0183421 0.0180528 0.0179181 0.0178569 0.0178807 0.0180025 0.0182089 0.018494 0.0188285 0.0192241 0.0196342 0.020125 0.0205776 0.0211971 0.0216599 0.0224472 0.0228468 0.023793 0.0244571 0.0250421 0.0244727 0.0229819 0.0207899 0.018247 0.0180651 0.0180569 0.0183029 0.0185074 0.018656 0.0186711 0.0185853 0.018422 0.0182318 0.0179732 0.0178724 0.0178406 0.0178946 0.0180435 0.0182757 0.0185891 0.0189492 0.0193718 0.0198121 0.0203221 0.0208149 0.0214283 0.0219444 0.0226646 0.0231062 0.0237597 0.0240117 0.0240959 0.0235251 0.0223663 0.0209402 0.0193381 0.0188709 0.0185469 0.0185529 0.0185676 0.018598 0.0185457 0.018441 0.0182863 0.0181222 0.0178476 0.0177591 0.0177408 0.0178187 0.0179982 0.0182673 0.0186233 0.0190194 0.0194776 0.0199462 0.0204686 0.0209753 0.0215517 0.0220553 0.0226612 0.0230662 0.0235351 0.0236861 0.0236392 0.023156 0.0222121 0.0211241 0.0199416 0.0193695 0.0189493 0.0187876 0.018669 0.0185885 0.018469 0.0183276 0.0181579 0.0179933 0.0176715 0.0175754 0.0175542 0.0176518 0.017868 0.0181884 0.0186053 0.0190459 0.0195499 0.0200485 0.0205944 0.0211237 0.0216895 0.0222049 0.0227368 0.023113 0.0234208 0.02348 0.023309 0.0228498 0.0220895 0.0212327 0.0203449 0.0197607 0.0193022 0.0190204 0.0187967 0.0186167 0.0184274 0.0182351 0.0180285 0.0178398 0.0174359 0.0173071 0.0172589 0.0173646 0.0176222 0.0180115 0.0185151 0.019018 0.0195915 0.0201354 0.0207256 0.0212871 0.0218579 0.0223912 0.0228819 0.0232423 0.0234453 0.0234676 0.0232308 0.0228034 0.0221255 0.0213555 0.0206043 0.0199965 0.0195294 0.0191696 0.0188857 0.0186353 0.01839 0.0181464 0.0178888 0.0176558 
        </DataArray>
        <DataArray Name="vy" NumberOfComponents="1" type="Float32" format="ascii">
0.0121457 0.0117133 0.0112921 0.0106928 0.0102468 0.00978723 0.009623 0.00949455 0.00950068 0.00956208 0.00964298 0.00983243 0.00999333 0.0102577 0.0105665 0.010928 0.0113311 0.0115559 0.0119408 0.0119681 0.0123296 0.0123032 0.0125381 0.0125556 0.0126911 0.0127324 0.0127947 0.0128053 0.0127954 0.0127275 0.0126186 0.0124044 0.0124267 0.011859 0.0113098 0.0104311 0.0097969 0.00913022 0.0089839 0.00885215 0.00890728 0.00899221 0.009045 0.0092611 0.00937023 0.00968718 0.0100577 0.0106673 0.0112467 0.0117343 0.0123315 0.0125465 0.0130632 0.0130361 0.0132043 0.0130926 0.0131239 0.0130858 0.0131029 0.0131002 0.0130971 0.0130435 0.0129505 0.0127168 0.0129267 0.0122231 0.011528 0.0102931 0.00932122 0.0083383 0.00812902 0.00792796 0.00797393 0.0080595 0.00809713 0.00845419 0.00860742 0.00906292 0.00956933 0.0105097 0.0112713 0.0120249 0.0128132 0.0131338 0.013939 0.013892 0.0139752 0.0136945 0.0135997 0.0134794 0.0134543 0.0134549 0.0134807 0.0134725 0.0134332 0.0132143 0.0135919 0.0127584 0.011989 0.0101989 0.00875719 0.00720036 0.00698086 0.00672802 0.00691207 0.00705487 0.00702897 0.00755733 0.00772552 0.00831289 0.00896253 0.0104435 0.0113798 0.012483 0.0134671 0.0140841 0.0150987 0.0149434 0.014761 0.0142131 0.013952 0.0137564 0.0137044 0.0137369 0.0138223 0.0138986 0.013961 0.0138055 0.0148119 0.0140656 0.0134643 0.0112979 0.00892518 0.00631403 0.00534886 0.00421192 0.00406977 0.00404298 0.00401714 0.00553843 0.00659318 0.0079468 0.00916891 0.0112864 0.0121358 0.0134071 0.0141887 0.0145961 0.0163667 0.0163718 0.0157504 0.0148257 0.0143122 0.0140482 0.0139714 0.0140697 0.0142596 0.0144905 0.0147502 0.0147831 0.0166352 0.0164765 0.0169916 0.0143348 0.010509 0.0051077 0.00201495 -0.000823129 -0.001565 -0.0018001 -0.00167175 0.00164943 0.00496021 0.00804674 0.0104846 0.0140019 0.0142203 0.0151074 0.0152191 0.0167589 0.0188817 0.0185137 0.0166673 0.0150447 0.0142629 0.0140192 0.0139774 0.0141947 0.0145364 0.0149955 0.015562 0.01599 0.0198398 0.0215855 0.0249623 0.0230114 0.0148144 0.00480341 -0.0024374 -0.0108901 -0.013217 -0.0146471 -0.014968 -0.00653593 0.00230486 0.00939666 0.0162389 0.0218067 0.0201882 0.0192775 0.0160554 0.0148173 0.0195967 0.022397 0.018596 0.0154605 0.0140711 0.0139289 0.0139583 0.0143374 0.0148872 0.0156734 0.0167341 0.0179083 0.0244584 0.0305575 0.0396911 0.0348691 0.0175029 -0.00343602 -0.0163753 -0.0234741 -0.0240775 -0.0259006 -0.0282356 -0.0192532 -0.0058031 0.005843 0.0195755 0.0343073 0.0310344 0.0230214 0.0153336 0.0218722 0.0261749 0.0271026 0.0199373 0.0144037 0.0128499 0.013254 0.0135382 0.0141117 0.0148609 0.016025 0.0176814 0.0201748 0.0303547 0.0424598 0.0570087 0.0423435 0.00102661 -0.0225863 -0.0294529 -0.0272006 -0.023404 -0.023083 -0.0257549 -0.0242501 -0.0187794 -0.0122247 0.0191565 0.0501553 0.0493298 0.038673 0.0254606 0.0184556 0.0227579 0.0243414 0.0176657 0.0108865 0.010769 0.0122748 0.0130114 0.0137741 0.0147428 0.0162781 0.0186925 0.0227908 0.0333924 0.0545161 0.0688274 0.027556 -0.0249514 -0.0345137 -0.0276924 -0.0193363 -0.0140876 -0.0130076 -0.0157508 -0.0215046 -0.0287361 -0.0406154 -0.00979412 0.0592113 0.0742459 0.0566677 0.0371738 0.0117911 0.018063 0.0210302 0.0157076 0.0100523 0.010982 0.0120257 0.0125718 0.0130591 0.0138883 0.0154923 0.0180379 0.0236844 0.0315037 0.0532845 0.0568117 0.0107026 -0.0284191 -0.0274684 -0.0164876 -0.00788724 -0.00350477 -0.00274501 -0.00534764 -0.0115978 -0.0217035 -0.0381143 -0.0230137 0.0468959 0.0718615 0.0507875 0.0277547 0.012551 0.0278527 0.0227355 0.0164106 0.0122354 0.0124736 0.0120968 0.0120616 0.0120752 0.0126111 0.0138726 0.0162264 0.0216484 0.0161768 0.0237885 0.0244222 0.00972885 -0.00168819 -0.00135715 0.00269104 0.00558411 0.00713394 0.00750079 0.00647362 0.00418606 -0.000626055 -0.00742193 -0.0081997 0.0197068 0.0401287 0.03196 0.0166545 0.00831069 0.0247679 0.0190272 0.0151508 0.0123423 0.0119109 0.0111071 0.01073 0.0103498 0.010308 0.0105191 0.0112247 0.0128362 -0.00483753 -0.0179777 -0.01265 0.0125975 0.0345066 0.0310641 0.0238561 0.0194434 0.0174277 0.0168532 0.0173497 0.0191464 0.022756 0.0286687 0.0303193 0.015546 -0.0109351 -0.00358472 0.00584813 0.00552288 0.0139974 0.0131606 0.0126398 0.0111904 0.0106773 0.00971897 0.00905229 0.008283 0.00752515 0.00651073 0.00481935 0.00161133 -0.0149069 -0.0357934 -0.0376723 0.00834383 0.0496757 0.0492959 0.0397159 0.0324527 0.0288776 0.0285767 0.0308761 0.0362539 0.0456375 0.0591516 0.0452991 -0.00677045 -0.0446337 -0.0267864 -0.00591763 0.00176629 0.00965581 0.0105949 0.0110456 0.0099409 0.00931667 0.00824278 0.007411 0.00643173 0.00535793 0.00361834 0.000968613 -0.00490871 -0.0171473 -0.0350095 -0.0463908 -0.0116755 0.0436057 0.0555659 0.0483487 0.0435576 0.0406365 0.0405352 0.0427217 0.04708 0.0546824 0.0657765 0.0290278 -0.0290038 -0.046147 -0.0239512 -0.0052416 0.00406783 0.00923221 0.01105 0.0114574 0.00975586 0.00855311 0.00699804 0.00587354 0.00473886 0.00353309 0.00167633 -0.00123505 -0.00689864 -0.011717 -0.0228305 -0.0367191 -0.0212574 0.022472 0.0395528 0.0448007 0.0490689 0.0503993 0.0530824 0.0546782 0.0507656 0.0483459 0.0397214 0.00182155 -0.029756 -0.0299574 -0.0138483 0.00106545 0.00821028 0.0109784 0.0128806 0.0121941 0.00899522 0.00748105 0.00566235 0.00451427 0.00353207 0.00261522 0.00128318 -0.000873421 -0.00457898 -0.00489752 -0.00929858 -0.0152935 -0.0105912 0.00737535 0.0200644 0.0324016 0.0411995 0.0463546 0.0511323 0.0522368 0.0432432 0.0333936 0.0160738 -0.000878199 -0.0145478 -0.0136386 -0.00430152 0.00661004 0.0119252 0.0126107 0.0159337 0.0159628 0.0101109 0.00771164 0.00535893 0.00383007 0.00276967 0.00209622 0.00130602 0.000127265 -0.00169928 2.24168e-05 -0.000750352 -0.00211692 0.00128057 0.0122141 0.018319 0.0227972 0.0267645 0.0307969 0.0341616 0.0340893 0.0282394 0.0228575 0.0150883 0.00552456 -0.00183601 -0.00432414 0.00240675 0.0183099 0.0221424 0.0156602 0.0195718 0.0159556 0.00554193 0.0043033 0.00374083 0.00291702 0.00230607 0.00206703 0.0019222 0.00156856 0.00107607 0.00333798 0.00409413 0.00498031 0.00770522 0.0130192 0.0158914 0.0183161 0.0201436 0.0221401 0.0240166 0.0240181 0.0211573 0.0183212 0.0134924 0.00859561 0.00296738 0.00123058 0.015121 0.0227853 0.0170879 -0.00110355 0.0160286 0.0324629 0.0128857 0.003413 0.0037672 0.00317328 0.00275534 0.0026272 0.00279605 0.00295015 0.00316804 0.00556493 0.00667886 0.00811817 0.010358 0.0137282 0.0151346 0.0159508 0.0162685 0.0169309 0.0177877 0.0179544 0.0168879 0.0155285 0.0126479 0.00872062 0.00426955 0.00354218 0.0151447 0.0183842 0.0165506 0.00429555 0.0219209 0.0383405 0.0169933 -0.000340348 0.00196916 0.00285178 0.00338825 0.0035985 0.00403462 0.00445166 0.00497437 0.00712584 0.00816626 0.00947179 0.0111558 0.013169 0.0141244 0.0146041 0.0148463 0.0151938 0.0156605 0.0157473 0.0150638 0.0139308 0.0114577 0.0084252 0.00542467 0.00398729 0.00860951 0.0162635 0.0240215 0.0230071 0.0239118 0.021328 0.0127988 0.00199383 0.00303753 0.0040655 0.00477187 0.00511092 0.00553989 0.00595114 0.0064796 0.00836583 0.0091521 0.0101657 0.0113547 0.0127073 0.013421 0.0138459 0.0140536 0.0142921 0.014608 0.0147113 0.0144072 0.0136492 0.0120726 0.0109715 0.0100855 0.00871815 0.0208924 0.0115549 0.00715258 0.00544127 0.00113496 0.00995771 0.0170945 0.0197961 0.0137848 0.0100315 0.0083178 0.00771295 0.00752791 0.00759032 0.00788191 0.00932804 0.00987767 0.0105995 0.0114357 0.0123275 0.0129099 0.0133069 0.0135902 0.0138456 0.01413 0.0142729 0.0141692 0.0136472 0.0126971 0.0120774 0.0132164 0.00969073 0.0127776 0.00801943 0.0197418 0.0166982 -0.0107578 -0.00997989 0.0152716 0.0242945 0.0167059 0.0124475 0.0104049 0.00957081 0.00911389 0.00893888 0.00902686 0.0100433 0.0103952 0.0108898 0.0114643 0.0120846 0.0125474 0.0129154 0.0132058 0.0134687 0.0137485 0.0139605 0.0140615 0.0138725 0.0134787 0.013093 0.0157406 0.0151735 0.0099202 0.00860654 0.0237409 0.0189006 -0.0153396 -0.0137087 0.0129976 0.018664 0.0147454 0.0125853 0.0114526 0.0107521 0.0102399 0.00994254 0.0098919 0.0105904 0.010795 0.011114 0.0115001 0.0119215 0.0122768 0.0125868 0.0128622 0.0131272 0.0134131 0.0137007 0.0139666 0.0141725 0.0142329 0.014392 0.0160329 0.0186639 0.0184642 0.0109557 0.00655703 0.00151851 -0.0122117 -0.000502106 0.0144558 0.0154711 0.0140074 0.0129508 0.0122358 0.0115663 0.0110339 0.0106816 0.010548 0.0109565 0.0110572 0.0112483 0.0114936 0.0117768 0.0120372 0.0122873 0.0125223 0.0127599 0.0130082 0.0132781 0.0135231 0.0137837 0.0138411 0.0138896 0.013961 0.0148004 0.0136178 0.0105091 0.00629994 0.00417187 6.98647e-05 0.00548964 0.0115617 0.0125404 0.0127831 0.0126218 0.0123158 0.0118451 0.0114303 0.0111251 0.0109753 0.0112218 0.0112466 0.0113391 0.0114724 0.0116437 0.0118145 0.0119981 0.0121841 0.012389 0.0126102 0.0128722 0.0131281 0.0134631 0.013644 0.0139222 0.0137545 0.01403 0.012802 0.0107127 0.00711835 0.00550816 0.00309387 0.00656898 0.0100533 0.0113932 0.0121924 0.0123545 0.0122461 0.0119488 0.0116563 0.0114194 0.0112768 0.0113999 0.011361 0.0113724 0.0114098 0.0114887 0.0115767 0.0116965 0.0118276 0.0119872 0.0121595 0.0123665 0.0125517 0.0127975 0.0128762 0.0130491 0.0126945 0.0126394 0.0114184 0.0105245 0.00840391 0.00782105 0.00680483 0.00854533 0.0102146 0.0112721 0.0119345 0.0121671 0.0121548 0.0119921 0.0117974 0.0116185 0.0114833 0.0115379 0.0114409 0.011379 0.0113249 0.011317 0.0113207 0.0113756 0.0114503 0.011567 0.0117041 0.0118786 0.0120455 0.0122671 0.0123661 0.0125607 0.0123345 0.0123174 0.0114216 0.0108335 0.00934498 0.00895654 0.00832893 0.00938347 0.0103861 0.0112217 0.0117615 0.0120265 0.0120875 0.0120271 0.0119084 0.011776 0.011646 0.0116514 0.0114903 0.0113545 0.011204 0.0111118 0.0110287 0.0110251 0.0110464 0.0111237 0.011226 0.0113607 0.0114979 0.0116673 0.0117509 0.011902 0.011756 0.0117716 0.0112017 0.0109754 0.010156 0.0101019 0.00981798 0.0104606 0.0109791 0.0115394 0.0118869 0.0121008 0.0121615 0.0121377 0.0120492 0.0119336 0.0117919 0.0117789 0.0115443 0.0113274 0.0110632 0.0108749 0.0106901 0.0106241 0.0105892 0.0106303 0.010709 0.010822 0.0109649 0.0111308 0.0112663 0.0114586 0.0114705 0.011602 0.0113273 0.0113121 0.0108465 0.0109074 0.0107495 0.0111651 0.0114582 0.0118425 0.0120756 0.0122464 0.0123024 0.0122969 0.0122247 0.0121162 0.0119557 0.0119209 0.0115961 0.0112873 0.0108793 0.0105852 0.0102836 0.0101763 0.0100998 0.0101261 0.0101931 0.0102832 0.0104311 0.0105773 0.0107569 0.0109828 0.0111482 0.0113957 0.011384 0.0115756 0.0114143 0.011629 0.0115693 0.0118722 0.0120078 0.0122519 0.0123778 0.0124904 0.0125214 0.0125126 0.0124404 0.0123284 0.0121398 
        </DataArray>
        <DataArray Name="vz" NumberOfComponents="1" type="Float32" format="ascii">
0 0 0 0 0 0 0 0 0 0 0 0 0 0 0 0 0 0 0 0 0 0 0 0 0 0 0 0 0 0 0 0 0 0 0 0 0 0 0 0 0 0 0 0 0 0 0 0 0 0 0 0 0 0 0 0 0 0 0 0 0 0 0 0 0 0 0 0 0 0 0 0 0 0 0 0 0 0 0 0 0 0 0 0 0 0 0 0 0 0 0 0 0 0 0 0 0 0 0 0 0 0 0 0 0 0 0 0 0 0 0 0 0 0 0 0 0 0 0 0 0 0 0 0 0 0 0 0 0 0 0 0 0 0 0 0 0 0 0 0 0 0 0 0 0 0 0 0 0 0 0 0 0 0 0 0 0 0 0 0 0 0 0 0 0 0 0 0 0 0 0 0 0 0 0 0 0 0 0 0 0 0 0 0 0 0 0 0 0 0 0 0 0 0 0 0 0 0 0 0 0 0 0 0 0 0 0 0 0 0 0 0 0 0 0 0 0 0 0 0 0 0 0 0 0 0 0 0 0 0 0 0 0 0 0 0 0 0 0 0 0 0 0 0 0 0 0 0 0 0 0 0 0 0 0 0 0 0 0 0 0 0 0 0 0 0 0 0 0 0 0 0 0 0 0 0 0 0 0 0 0 0 0 0 0 0 0 0 0 0 0 0 0 0 0 0 0 0 0 0 0 0 0 0 0 0 0 0 0 0 0 0 0 0 0 0 0 0 0 0 0 0 0 0 0 0 0 0 0 0 0 0 0 0 0 0 0 0 0 0 0 0 0 0 0 0 0 0 0 0 0 0 0 0 0 0 0 0 0 0 0 0 0 0 0 0 0 0 0 0 0 0 0 0 0 0 0 0 0 0 0 0 0 0 0 0 0 0 0 0 0 0 0 0 0 0 0 0 0 0 0 0 0 0 0 0 0 0 0 0 0 0 0 0 0 0 0 0 0 0 0 0 0 0 0 0 0 0 0 0 0 0 0 0 0 0 0 0 0 0 0 0 0 0 0 0 0 0 0 0 0 0 0 0 0 0 0 0 0 0 0 0 0 0 0 0 0 0 0 0 0 0 0 0 0 0 0 0 0 0 0 0 0 0 0 0 0 0 0 0 0 0 0 0 0 0 0 0 0 0 0 0 0 0 0 0 0 0 0 0 0 0 0 0 0 0 0 0 0 0 0 0 0 0 0 0 0 0 0 0 0 0 0 0 0 0 0 0 0 0 0 0 0 0 0 0 0 0 0 0 0 0 0 0 0 0 0 0 0 0 0 0 0 0 0 0 0 0 0 0 0 0 0 0 0 0 0 0 0 0 0 0 0 0 0 0 0 0 0 0 0 0 0 0 0 0 0 0 0 0 0 0 0 0 0 0 0 0 0 0 0 0 0 0 0 0 0 0 0 0 0 0 0 0 0 0 0 0 0 0 0 0 0 0 0 0 0 0 0 0 0 0 0 0 0 0 0 0 0 0 0 0 0 0 0 0 0 0 0 0 0 0 0 0 0 0 0 0 0 0 0 0 0 0 0 0 0 0 0 0 0 0 0 0 0 0 0 0 0 0 0 0 0 0 0 0 0 0 0 0 0 0 0 0 0 0 0 0 0 0 0 0 0 0 0 0 0 0 0 0 0 0 0 0 0 0 0 0 0 0 0 0 0 0 0 0 0 0 0 0 0 0 0 0 0 0 0 0 0 0 0 0 0 0 0 0 0 0 0 0 0 0 0 0 0 0 0 0 0 0 0 0 0 0 0 0 0 0 0 0 0 0 0 0 0 0 0 0 0 0 0 0 0 0 0 0 0 0 0 0 0 0 0 0 0 0 0 0 0 0 0 0 0 0 0 0 0 0 0 0 0 0 0 0 0 0 0 0 0 0 0 0 0 0 0 0 0 0 0 0 0 0 0 0 0 0 0 0 0 0 0 0 0 0 0 0 0 0 0 0 0 0 0 0 0 0 0 0 0 0 0 0 0 0 0 0 0 0 0 0 0 0 0 0 0 0 0 0 0 0 0 0 0 0 0 0 0 0 0 0 0 0 0 0 0 0 0 0 0 0 0 0 0 0 0 0 0 0 0 0 0 0 0 0 0 0 0 0 0 0 0 0 0 0 0 0 0 0 0 0 0 0 0 0 0 0 0 0 0 0 0 0 0 0 0 0 0 0 0 0 0 0 0 0 0 0 0 0 0 0 0 0 0 0 0 0 0 0 0 0 0 0 0 0 0 0 0 0 0 0 0 0 0 0 0 0 0 0 0 0 0 0 0 0 0 0 0 0 0 0 0 0 0 0 0 0 0 0 0 0 0 0 0 0 
        </DataArray>
        <DataArray Name="p" NumberOfComponents="1" type="Float32" format="ascii">