<?xml version="1.0"?>
<VTKFile type="StructuredGrid" version="0.1" byte_order="LittleEndian">
  <StructuredGrid WholeExtent="0 32 0 32 0 1">
    <Piece Extent="0 32 0 32 0 1">
      <PointData>
      </PointData>
      <CellData>
        <DataArray Name="vx" NumberOfComponents="1" type="Float32" format="ascii">
0.0166136 0.0158156 0.0149671 0.014142 0.0134429 0.0130235 0.0130828 0.0140203 0.0158269 0.018323 0.0210599 0.0234806 0.0252041 0.0259982 0.0261421 0.0258221 0.0253465 0.0247258 0.0241808 0.023646 0.0231911 0.022711 0.0222056 0.0217073 0.0211875 0.0207199 0.0202197 0.0197457 0.0192149 0.0186704 0.0180423 0.0173763 0.0165041 0.0155488 0.0144413 0.0132207 0.0120233 0.0110366 0.0105837 0.0115769 0.0140437 0.0177075 0.0217823 0.0252964 0.0275903 0.0282763 0.0280467 0.027289 0.0264595 0.0255179 0.0247653 0.0240115 0.0233592 0.0226992 0.0220252 0.0214686 0.0209192 0.0204919 0.020043 0.0196351 0.0191606 0.0186608 0.0180425 0.0173552 0.0164842 0.0153041 0.0137911 0.0119071 0.0098535 0.00781303 0.00643233 0.00746212 0.0109877 0.0166827 0.023105 0.0284842 0.0317058 0.0320746 0.0309763 0.0293267 0.0278137 0.0263548 0.0253101 0.0243178 0.0234629 0.0225824 0.0217177 0.0211161 0.0205775 0.0202394 0.0198822 0.0195761 0.0191841 0.0187527 0.018156 0.0174517 0.0166646 0.0152268 0.0131652 0.0101911 0.00659311 0.002404 -0.00129479 -0.000472961 0.00516721 0.0148195 0.0257819 0.0347617 0.0394666 0.0385728 0.0354907 0.0321772 0.0294207 0.0271524 0.0257064 0.0245217 0.0235786 0.0225166 0.0214537 0.0207523 0.0201841 0.0199416 0.019694 0.0195218 0.0192489 0.0189293 0.0183975 0.0177217 0.0170538 0.0151948 0.0121595 0.00730916 0.00120972 -0.00652248 -0.0134388 -0.0129247 -0.0043401 0.0118298 0.0303724 0.0451248 0.0524243 0.0497639 0.0430351 0.03667 0.031608 0.0279788 0.025955 0.0246623 0.0236138 0.0221085 0.0207088 0.0199892 0.019587 0.0196034 0.0195748 0.0195986 0.0194878 0.019317 0.0188787 0.0182512 0.0178781 0.0156411 0.0115617 0.00436273 -0.00466977 -0.0176503 -0.0306868 -0.0295779 -0.0152947 0.009309 0.0367281 0.0603372 0.0723464 0.0649789 0.0522015 0.0421109 0.0338738 0.0284079 0.0254576 0.0242483 0.0234817 0.0218153 0.0203672 0.0193728 0.0188737 0.0191249 0.019332 0.0196035 0.019726 0.0197889 0.019547 0.0190914 0.0191941 0.0165881 0.0112856 0.00225264 -0.00723789 -0.0203705 -0.0285781 -0.0188391 -0.00185633 0.0175403 0.0364906 0.0577906 0.0786842 0.0758964 0.0594717 0.0468133 0.0352119 0.0277785 0.0240702 0.0238133 0.0222793 0.0182035 0.0169606 0.017281 0.0178247 0.0187939 0.0194277 0.0199727 0.0203298 0.0206348 0.0206297 0.0204111 0.0215618 0.0198785 0.0164153 0.0120618 0.0169801 0.0194293 0.0275574 0.0408598 0.0440896 0.034216 0.0211115 0.0138422 0.0279354 0.0414748 0.0381228 0.0391685 0.0310308 0.0239266 0.0182275 0.0188322 0.0184964 0.0121953 0.0137014 0.016473 0.0165348 0.0180036 0.0190488 0.0199707 0.0207087 0.0214018 0.0218319 0.0221571 0.0254151 0.026235 0.0267313 0.0326597 0.0502117 0.0607776 0.0688137 0.0689763 0.0554508 0.0340291 0.0101463 -0.0103079 -0.0238564 -0.0166444 -0.00289454 0.00925992 0.0152956 0.012998 0.00995964 0.00971181 0.0120265 0.01392 0.0166952 0.0175894 0.0179713 0.0192259 0.0201081 0.0209435 0.0217742 0.0227115 0.0236259 0.0247304 0.0290152 0.0326389 0.0364976 0.0485296 0.0557688 0.0659201 0.0770656 0.0676605 0.0504845 0.0300936 0.00877869 -0.0109112 -0.0310138 -0.0272407 -0.0179909 -0.0129731 0.00260885 0.00800493 0.0176426 0.0237016 0.0162154 0.0112197 0.00645663 0.00724876 0.0142516 0.0168762 0.0192306 0.0206339 0.022025 0.0234079 0.0249267 0.0268503 0.0327787 0.038143 0.046963 0.0540153 0.0568665 0.0669794 0.0719278 0.0614944 0.0453919 0.0269599 0.00786345 -0.0107652 -0.028351 -0.0319749 -0.0219026 -0.0163875 -0.00889811 0.0029894 0.0113813 0.0215045 0.0188355 0.0129477 0.0153346 0.0174664 0.0195462 0.0201812 0.0209501 0.021872 0.0230362 0.0244567 0.026401 0.0288095 0.0346923 0.041863 0.0530734 0.06161 0.0644709 0.067818 0.0669824 0.0560123 0.0407205 0.02425 0.00719614 -0.0105972 -0.0281169 -0.0352676 -0.0304191 -0.0252852 -0.0176555 -0.0055748 -0.000240398 0.000996533 0.00710168 0.0171537 0.0224615 0.0230489 0.0213831 0.0207443 0.0209898 0.0218632 0.023109 0.0246607 0.0269074 0.0296559 0.0350916 0.0426552 0.0545136 0.0645286 0.0683543 0.0697613 0.0672086 0.0558851 0.0401803 0.0234866 0.00614528 -0.0118321 -0.0293335 -0.0363469 -0.0359422 -0.0313388 -0.0197107 -0.00783115 -0.00090303 -0.0005498 0.00724012 0.0189999 0.0209028 0.0212132 0.0206171 0.0206606 0.0210425 0.0219663 0.0231773 0.0247277 0.0270042 0.0298469 0.0328216 0.0381803 0.0480313 0.0548131 0.0579349 0.0661395 0.0694795 0.0595292 0.0425136 0.0236413 0.00359301 -0.0160142 -0.0341912 -0.0378125 -0.0302866 -0.0249704 -0.0155037 -0.00496659 0.00146712 0.0036677 0.00971645 0.0177033 0.0197612 0.0205227 0.0201811 0.020331 0.0206768 0.0215674 0.0226928 0.0241475 0.0261533 0.0285749 0.0285904 0.0319418 0.0366051 0.0475007 0.0529599 0.0606441 0.0712212 0.0640071 0.0458005 0.0245491 0.00164077 -0.0190369 -0.0371785 -0.0299777 -0.017919 -0.0158896 -0.00359121 0.00245668 0.00699385 0.00864784 0.0128685 0.0186059 0.0202465 0.0204867 0.0201758 0.020189 0.0203909 0.0211232 0.0220033 0.0232027 0.0245989 0.0263603 0.0244123 0.0251062 0.0262438 0.0336233 0.0533049 0.0634586 0.0680068 0.0694053 0.0506392 0.0268719 0.000218057 -0.0220218 -0.0344483 -0.0223592 -0.00614678 0.00286732 0.0114012 0.0105491 0.0108391 0.0112512 0.0151324 0.0217937 0.0234286 0.0221454 0.0211205 0.0204698 0.0202767 0.020695 0.0212642 0.0221351 0.0229409 0.0238828 0.0199216 0.0179049 0.0134804 0.0104273 0.0150059 0.0245253 0.0369862 0.0470285 0.0410944 0.0249707 0.00418573 -0.00906083 -0.00410488 0.00414005 0.0127425 0.025726 0.0226188 0.0157882 0.0113178 0.0108129 0.0158502 0.0262256 0.0281636 0.0247399 0.0227896 0.0212535 0.0205687 0.0205003 0.0206035 0.020981 0.0210739 0.0210952 0.0174549 0.014351 0.00757453 -0.00183353 -0.0137181 -0.0215389 -0.0271508 -0.0172553 0.00219694 0.0173677 0.031222 0.0491051 0.0704145 0.0665189 0.0519217 0.0446355 0.030854 0.0160656 0.00922413 0.0120153 0.0191424 0.0362938 0.0400281 0.0303285 0.025028 0.0217085 0.0205797 0.0202447 0.0200818 0.020126 0.0198073 0.0192944 0.0162635 0.013634 0.00841822 0.000961321 -0.00960418 -0.0216527 -0.0349283 -0.0336645 -0.0140758 0.0131356 0.0452117 0.0699894 0.0828509 0.0729822 0.0563657 0.0445921 0.0333665 0.0209614 0.0194571 0.0251693 0.0288154 0.0394008 0.0408184 0.0318416 0.0281091 0.0229587 0.0212882 0.0204642 0.0199678 0.0195916 0.0189189 0.0180935 0.0156823 0.0134692 0.00956306 0.00443435 -0.00272879 -0.00994495 -0.0167141 -0.016597 -0.00443121 0.0152897 0.038948 0.0560549 0.0633008 0.0585171 0.050586 0.0451468 0.0402046 0.037275 0.0369442 0.034588 0.0279895 0.0100174 0.000188843 0.00879387 0.0173883 0.0182649 0.0190913 0.0194259 0.0193673 0.0190448 0.0183199 0.017383 0.0156097 0.0138831 0.0112643 0.00813855 0.00402447 -5.10639e-06 -0.00335781 -0.0023661 0.00551757 0.0174879 0.0315078 0.0423804 0.0479745 0.047379 0.0451232 0.0449406 0.0485449 0.0514294 0.0516139 0.0436544 0.0254451 -0.00292876 -0.0131767 0.00246584 0.0113518 0.0167207 0.0187932 0.0194862 0.0194687 0.0189676 0.018129 0.0171039 0.0156739 0.0142599 0.0123765 0.0103918 0.00808446 0.00622109 0.00521358 0.00656526 0.0115497 0.0187778 0.0271072 0.0339341 0.0381237 0.0395079 0.040424 0.043442 0.0515403 0.0625849 0.0642425 0.0472596 0.0203255 -0.01025 -0.0201644 -0.00486357 0.00493542 0.0139863 0.0176451 0.0189213 0.0191682 0.0187241 0.0179454 0.0169677 0.015972 0.0148108 0.013458 0.0121779 0.0108937 0.0100471 0.00992543 0.0112619 0.0146419 0.0192764 0.024436 0.0289226 0.0317479 0.033242 0.0335297 0.0356216 0.0380304 0.0487483 0.0600142 0.047569 0.0248522 0.00499873 -0.00705718 -0.00042689 0.00846518 0.0165575 0.0187058 0.0198772 0.0195716 0.0190023 0.0180929 0.0171224 0.0162587 0.0152914 0.014276 0.013407 0.0126843 0.0123869 0.0127077 0.0139414 0.0163439 0.0194712 0.0228247 0.0257575 0.0275103 0.0281289 0.0272201 0.0258462 0.0221059 0.02245 0.0312524 0.0310583 0.0291983 0.0371084 0.0445605 0.0381956 0.0278788 0.0252376 0.0225208 0.0214643 0.0201996 0.0192293 0.0182169 0.0172703 0.0165759 0.0157664 0.0149931 0.0143909 0.0139878 0.0139495 0.0144012 0.0154739 0.0172563 0.019486 0.0217804 0.0238075 0.0249054 0.0251096 0.0236899 0.0211861 0.0150997 0.00742761 -0.00348467 0.00473524 0.0229355 0.0373531 0.0482054 0.0402773 0.0293371 0.0253917 0.0227001 0.0215338 0.020237 0.019303 0.0183336 0.0174638 0.0168077 0.0161222 0.0155132 0.0150781 0.0148552 0.014949 0.0154394 0.0163736 0.0177607 0.0194356 0.021109 0.0225879 0.0233805 0.0235005 0.022394 0.0205774 0.0166566 0.0123328 0.00292084 0.00724325 0.022623 0.0318052 0.0374652 0.0327131 0.0274643 0.0249718 0.0227578 0.0214669 0.0202039 0.0192808 0.0183779 0.0175845 0.0169901 0.0163913 0.0158882 0.0155543 0.0154286 0.0155792 0.0160576 0.0168794 0.0180198 0.0193662 0.0206937 0.0218838 0.0225745 0.0227781 0.0221051 0.0208762 0.018574 0.0164369 0.0125184 0.0147101 0.0223459 0.0274679 0.0303956 0.0278263 0.0252812 0.0236373 0.0220727 0.021037 0.0200079 0.0192067 0.0184009 0.0176828 0.0170782 0.0165333 0.0160879 0.0158029 0.0157175 0.0158839 0.0163402 0.0170911 0.0181002 0.0192772 0.020442 0.0214995 0.0221873 0.0225199 0.022245 0.0216092 0.0203432 0.0194319 0.0177666 0.0189562 0.0225246 0.0247167 0.0262036 0.0250716 0.0238411 0.022734 0.0215848 0.0207146 0.0198409 0.0191123 0.0183771 0.0177126 0.017097 0.0165708 0.0161389 0.0158582 0.0157697 0.0159234 0.0163562 0.0170776 0.01805 0.0191881 0.0203342 0.0213848 0.0221373 0.0225838 0.0225827 0.0222793 0.021596 0.0210847 0.0203866 0.0210233 0.0226342 0.0236565 0.0243322 0.0236358 0.0228538 0.0220156 0.0211521 0.0204297 0.0196829 0.0190174 0.0183347 0.0177034 0.0170378 0.0164979 0.016038 0.0157166 0.0155812 0.0156915 0.0160953 0.0168253 0.0178477 0.0190682 0.0203271 0.0214831 0.0223567 0.0229114 0.0230833 0.0229805 0.0226107 0.0222887 0.0219027 0.0221105 0.0227575 0.0230996 0.0232941 0.0228021 0.0222173 0.021556 0.0208525 0.0202148 0.0195419 0.0189133 0.0182612 0.0176432 0.0169234 0.016334 0.0157997 0.0153861 0.0151522 0.015179 0.0155402 0.0163165 0.0174795 0.0189167 0.0204339 0.0218193 0.02288 0.0235348 0.023793 0.0237407 0.0234766 0.0231582 0.0228331 0.022762 0.0228877 0.0228681 0.0227555 0.0223032 0.0217842 0.021217 0.0206089 0.0200327 0.0194143 0.0188148 0.0181787 0.0175562 0.0167712 0.0160989 0.0154414 0.0148703 0.014461 0.0143275 0.0145853 0.0154305 0.0168436 0.0186791 0.0206568 0.0224388 0.0237699 0.0245109 0.0247743 0.0246638 0.0243655 0.0239507 0.0235569 0.0232448 0.0230393 0.0227634 0.0224363 0.0219766 0.0214673 0.0209553 0.0204037 0.0198752 0.0192989 0.0187243 0.0180944 0.0174552 
        </DataArray>
        <DataArray Name="vy" NumberOfComponents="1" type="Float32" format="ascii">
0.0137224 0.0135173 0.0131995 0.0125814 0.0116812 0.0103644 0.00870276 0.00672061 0.00518096 0.0041458 0.00428369 0.0051861 0.00691769 0.00871285 0.0103872 0.0117486 0.0128519 0.0137509 0.0143738 0.0149419 0.0151374 0.0152668 0.0150818 0.0148649 0.0145814 0.0143227 0.0141218 0.0139639 0.0138826 0.013826 0.0138194 0.0137749 0.0145591 0.0144191 0.0141474 0.0134749 0.0123734 0.0106473 0.00821855 0.00518813 0.00275078 0.00107123 0.00132328 0.0027907 0.00554114 0.0082728 0.0105946 0.0122867 0.0135524 0.0144596 0.0150634 0.0155705 0.0157567 0.0158694 0.0156442 0.0153856 0.0150479 0.0147684 0.0145613 0.0144272 0.0143899 0.0143958 0.0144725 0.0145123 0.0155415 0.0155933 0.0155411 0.0150398 0.0138958 0.011826 0.00823567 0.00320681 -0.000895242 -0.00376959 -0.00326964 -0.000719961 0.00399697 0.0082976 0.0113734 0.0133423 0.0146276 0.0154095 0.0159033 0.0162913 0.0164674 0.0165709 0.0163048 0.0159862 0.0155579 0.0152213 0.014985 0.0148591 0.0148654 0.0149453 0.0151355 0.015311 0.0166953 0.0170919 0.0174823 0.0173828 0.0163709 0.0140054 0.00861309 0.000695582 -0.00622568 -0.0111848 -0.0102753 -0.0058018 0.00198349 0.00905369 0.0132418 0.0154537 0.0165253 0.0169283 0.0171723 0.0173613 0.0175984 0.0176195 0.0171267 0.0165286 0.0158928 0.015451 0.0151972 0.0151094 0.0152034 0.0154085 0.0157746 0.0161665 0.018055 0.0191554 0.0205818 0.0217699 0.0217166 0.0198082 0.0112745 -0.00337922 -0.0160896 -0.0249722 -0.0231833 -0.0146969 0.000350525 0.0126126 0.0176628 0.0195598 0.0196719 0.0190607 0.0186646 0.0182085 0.0185401 0.0185265 0.0180358 0.0172893 0.0163817 0.0157667 0.0154358 0.0153345 0.0154845 0.0158037 0.016366 0.0170514 0.0197086 0.0219786 0.0251762 0.0283184 0.0298715 0.0284206 0.0151412 -0.00779495 -0.0300252 -0.0464793 -0.0429286 -0.0272847 -0.00278318 0.0188965 0.0256469 0.0269359 0.0250991 0.0224041 0.0206974 0.0194049 0.0206557 0.0205978 0.0193394 0.0176474 0.016196 0.0154116 0.0151342 0.0151485 0.015458 0.0159842 0.0168341 0.0179671 0.0215073 0.0256515 0.0317684 0.0385075 0.043546 0.0460328 0.0227224 -0.0191918 -0.0558808 -0.0791374 -0.0750366 -0.0519145 -0.00409415 0.0341349 0.0396334 0.0386211 0.0334393 0.0273884 0.0234483 0.0194618 0.0210829 0.0209308 0.0202987 0.0189683 0.0166843 0.0154669 0.0150482 0.015015 0.01536 0.0160059 0.0170994 0.0187514 0.02345 0.0299902 0.0390883 0.047048 0.051473 0.047845 0.0139645 -0.0340627 -0.065559 -0.0824864 -0.0813989 -0.0682715 -0.0235795 0.0396614 0.0511755 0.0515248 0.0436907 0.0329899 0.0251389 0.0200631 0.028323 0.0266162 0.0202454 0.0167079 0.0143555 0.0136504 0.0137793 0.0141355 0.0147294 0.0156289 0.0170371 0.0193961 0.0237206 0.0311161 0.0392099 0.03938 0.0355886 0.0383432 0.00401674 -0.035101 -0.0505411 -0.0569662 -0.0580101 -0.0568888 -0.0315439 0.0308762 0.0370197 0.0485907 0.0486086 0.0401607 0.0308727 0.0168563 0.0271597 0.023826 0.0149825 0.0175363 0.0153719 0.0133763 0.0132943 0.0135054 0.0140352 0.0149317 0.016377 0.0190749 0.0218438 0.0290574 0.032085 0.025608 0.0216921 0.0281481 0.0033646 -0.0210555 -0.0310668 -0.0355576 -0.0368242 -0.0352793 -0.0197299 0.018932 0.0256266 0.0349486 0.0400591 0.0372434 0.0283523 0.0182463 0.0268235 0.0239281 0.0167328 0.0152056 0.0115922 0.0112066 0.0117096 0.0122927 0.012841 0.0137136 0.0149727 0.0176485 0.0179033 0.0234868 0.023147 0.0192806 0.0172356 0.0177217 0.00373562 -0.00826338 -0.0131292 -0.015243 -0.0170001 -0.0176105 -0.0108471 0.0140476 0.02228 0.026561 0.0275741 0.0256499 0.0151934 0.017128 0.0389391 0.032178 0.0186418 0.00983451 0.00650766 0.00858161 0.00987447 0.0108467 0.0113819 0.0120946 0.0129542 0.0149959 0.0123356 0.0146027 0.0151239 0.0150503 0.0110274 0.0129297 0.00887472 0.00533198 0.00337541 0.00222763 0.00107539 0.000353432 0.00253948 0.010955 0.0141598 0.0216363 0.0195215 0.0169537 0.00973572 0.0116794 0.0355371 0.0259353 0.0135436 0.0103653 0.00903728 0.0095696 0.0098564 0.0100871 0.0101406 0.0103116 0.0105287 0.0112405 0.00608563 0.00471492 0.00599222 0.00564448 0.0125819 0.0141628 0.0151345 0.0178201 0.0185368 0.018411 0.0180518 0.0170398 0.0153802 0.0123852 0.0166388 0.00958893 0.00988703 0.0077609 0.0070436 0.0104648 0.0227901 0.0179521 0.0130464 0.0103519 0.00913507 0.00904619 0.00891802 0.00884876 0.00864039 0.00839061 0.00798991 0.00725138 -5.43579e-05 -0.00522598 -0.00421233 -0.000894706 0.0068563 0.0132928 0.0224243 0.0321102 0.0353894 0.0360919 0.0362517 0.0347752 0.0283684 0.012472 0.0146586 0.00087314 0.000261119 -0.00152245 0.0023096 0.00613225 0.0136318 0.0125629 0.0114414 0.0102711 0.00951093 0.00898317 0.00841808 0.00789239 0.00728754 0.00649424 0.00539803 0.00316573 -0.00374408 -0.0107275 -0.0119153 -0.00445982 0.00451053 0.00151213 0.021305 0.0450649 0.0544418 0.0580121 0.0582807 0.0543846 0.0383908 0.0060415 0.00765354 -0.0068537 -0.0113971 -0.00960571 -0.00263557 0.00289454 0.00769871 0.00860498 0.0103156 0.00998794 0.0094879 0.00865311 0.00776148 0.00692923 0.00607317 0.00499241 0.00350494 0.000579657 -0.00568975 -0.013489 -0.0200313 -0.019088 -0.00722708 -0.00423324 0.0217816 0.058111 0.0741659 0.0799653 0.0794406 0.0726593 0.0429165 -0.00811168 0.00159098 -0.0134596 -0.0188272 -0.0117259 -0.004161 0.000982618 0.00323867 0.00536934 0.00966077 0.0100235 0.00974524 0.00858222 0.00737058 0.00621066 0.00512836 0.00387524 0.00218856 -0.000850453 -0.0050536 -0.0121287 -0.0210041 -0.0287658 -0.0267544 -0.0147486 0.0107936 0.0637879 0.0964864 0.110494 0.108168 0.0884453 0.0381776 -0.0242619 -0.0199987 -0.0234587 -0.0198635 -0.00919773 -0.00388682 -0.00142132 -0.00297299 -8.15087e-05 0.010451 0.0121211 0.011599 0.00959772 0.0077165 0.00605173 0.00469744 0.00337724 0.0017765 -0.000821047 -0.00248353 -0.00672113 -0.0127706 -0.0188957 -0.022541 -0.0215388 0.000740312 0.05409 0.0930519 0.116219 0.111037 0.0795743 0.0288714 -0.0195884 -0.022773 -0.0185409 -0.00907523 0.000950163 0.00135134 -0.00387328 -0.0109943 -0.00706141 0.0122596 0.0140915 0.0132712 0.0102329 0.00796451 0.00598755 0.0045552 0.00333222 0.00205814 0.000304404 -0.000152807 -0.00228409 -0.00529749 -0.00758854 -0.0082919 -0.00373107 0.00790659 0.0367738 0.0633898 0.083205 0.0777786 0.052216 0.0223205 -0.00240394 -0.00355449 -0.00173377 0.00680273 0.0117838 -0.000658211 -0.0116024 -0.0270752 -0.0236006 0.0175832 0.0264054 0.0215791 0.0142749 0.00966902 0.00675591 0.00498159 0.00372939 0.00268077 0.00152197 0.00205501 0.00125273 2.68801e-05 -0.000350936 5.54644e-05 0.00404539 0.0125106 0.0307222 0.0455674 0.0556169 0.0530324 0.0401648 0.0227708 0.00746217 0.00469191 0.00635733 0.014636 0.0156237 -0.00136044 -0.0125553 -0.02479 -0.018866 0.0240267 0.0218668 0.0222831 0.0158234 0.0101851 0.00697406 0.00528729 0.00425699 0.00353943 0.00291168 0.00378611 0.00371803 0.00359184 0.00444413 0.00580858 0.00970198 0.0150999 0.0249986 0.0330683 0.0385632 0.0369977 0.0298282 0.0201828 0.0113262 0.00845088 0.00886563 0.0147953 0.0150618 -0.000363909 -0.0034977 -0.00389515 0.00151479 0.0218855 0.00770393 0.0157908 0.0130924 0.00921778 0.00675673 0.00555613 0.00486745 0.00443425 0.0041416 0.0053254 0.00559087 0.00589745 0.00698788 0.0084165 0.0114592 0.0152656 0.021358 0.0260009 0.0289419 0.0279382 0.0236526 0.0173846 0.0107342 0.00678892 0.00356021 0.00580887 0.0149256 0.00562226 0.0170568 0.0205241 0.021825 0.0142324 0.000542793 0.0066168 0.00886183 0.0070864 0.00630503 0.00569332 0.00553058 0.00538126 0.00536855 0.00653462 0.00694807 0.00746047 0.00859299 0.00996313 0.01235 0.0149675 0.0185867 0.0212595 0.0227959 0.0219878 0.0190776 0.014598 0.00917223 0.00403405 -0.00198863 -0.00557601 0.00580012 0.0112767 0.0418581 0.0520914 0.0477991 0.0125096 -0.0132384 -0.00930774 -1.42211e-05 0.00333183 0.00505542 0.00563157 0.00606317 0.00621724 0.00639254 0.00765549 0.00806941 0.0085874 0.00953773 0.0106579 0.0123906 0.0142176 0.0164893 0.0181033 0.0189198 0.0182862 0.0163025 0.0130646 0.00904114 0.00438265 -0.00085076 -0.00809672 -0.00754851 0.00546371 0.0544095 0.06194 0.0513333 0.0175389 -0.0119206 -0.00827815 0.000129802 0.00420163 0.00584761 0.00662228 0.0070641 0.00726221 0.0074587 0.00854282 0.00890785 0.00937157 0.0101314 0.0110101 0.012245 0.0134878 0.0148816 0.0158347 0.0162421 0.015757 0.0144218 0.0122585 0.00955769 0.00650848 0.00347641 -0.000334051 -0.00272747 0.00429506 0.0433107 0.0447627 0.0331128 0.0148289 0.000944488 0.00284165 0.00506142 0.00653014 0.00725814 0.00773027 0.00802402 0.00817607 0.00834581 0.00935472 0.00962725 0.00998129 0.0105207 0.0111392 0.011951 0.0127518 0.0135869 0.014137 0.0143317 0.0139858 0.0131494 0.0117853 0.0101834 0.00833531 0.00704158 0.00586352 0.00673695 0.0105332 0.0276394 0.0297002 0.0249141 0.0143713 0.00671932 0.00709793 0.00744843 0.00822548 0.00858112 0.00888296 0.00901742 0.00909846 0.00920325 0.0100216 0.0101984 0.010434 0.0107734 0.0111585 0.0116346 0.0120907 0.0125316 0.0128036 0.0128647 0.0126286 0.0121426 0.0113765 0.0105461 0.00959687 0.00911869 0.00885096 0.010182 0.0119829 0.0209068 0.0208195 0.018985 0.014215 0.010548 0.0101281 0.00964391 0.00977413 0.00977996 0.00985109 0.00985507 0.00987279 0.00992251 0.0106432 0.0107167 0.0108234 0.0109678 0.0111275 0.0113091 0.0114716 0.0116074 0.0116689 0.0116355 0.0114836 0.0112512 0.0109076 0.010611 0.0102719 0.0103017 0.0105149 0.0117887 0.0131296 0.0172796 0.0172927 0.0166208 0.0139877 0.0119203 0.0113639 0.0108735 0.0108479 0.0107362 0.0107081 0.0106412 0.010613 0.0106073 0.011209 0.0111888 0.011174 0.0111391 0.0110881 0.0110034 0.0108964 0.0107594 0.0106314 0.0105071 0.0104205 0.0103834 0.0103744 0.0104695 0.0105708 0.0109285 0.0113384 0.0123947 0.013239 0.0155006 0.0154673 0.0152748 0.0139552 0.0128384 0.0123423 0.0118834 0.0117213 0.0115312 0.011435 0.0113313 0.0112747 0.0112282 0.0117744 0.0116682 0.0115381 0.0113296 0.0110675 0.0107142 0.0103267 0.00990263 0.00957034 0.00933584 0.00930019 0.00943275 0.00972346 0.0101449 0.0106018 0.0112067 0.0118106 0.0127345 0.0134639 0.0147496 0.0148288 0.0148015 0.0140496 0.0133999 0.0129912 0.0126179 0.0124255 0.0122259 0.0121092 0.011993 0.0119201 0.0118413 0.0123593 0.0121878 0.0119619 0.0115945 0.0111226 0.0104862 0.00977636 0.00899735 0.00840269 0.00800893 0.00802027 0.00833561 0.00896287 0.00972651 0.0105266 0.0113594 0.0121172 0.0129837 0.0136204 0.0144756 0.0146183 0.0146856 0.0142876 0.0138958 0.0135657 0.0132502 0.0130456 0.0128512 0.0127315 0.0126192 0.0125466 0.0124537 0.0129978 0.0127851 0.0124862 0.0119681 0.0112746 0.0103138 0.00919846 0.0079486 0.00698988 0.00635757 0.00641945 0.00696608 0.00802725 0.0092178 0.0104138 0.011498 0.0124338 0.0133106 0.0139446 0.014606 0.014788 0.0148914 0.0146373 0.0143661 0.0140745 0.0138006 0.0136002 0.0134249 0.01332 0.0132283 0.0131768 0.0130925 
        </DataArray>
        <DataArray Name="vz" NumberOfComponents="1" type="Float32" format="ascii">
0 0 0 0 0 0 0 0 0 0 0 0 0 0 0 0 0 0 0 0 0 0 0 0 0 0 0 0 0 0 0 0 0 0 0 0 0 0 0 0 0 0 0 0 0 0 0 0 0 0 0 0 0 0 0 0 0 0 0 0 0 0 0 0 0 0 0 0 0 0 0 0 0 0 0 0 0 0 0 0 0 0 0 0 0 0 0 0 0 0 0 0 0 0 0 0 0 0 0 0 0 0 0 0 0 0 0 0 0 0 0 0 0 0 0 0 0 0 0 0 0 0 0 0 0 0 0 0 0 0 0 0 0 0 0 0 0 0 0 0 0 0 0 0 0 0 0 0 0 0 0 0 0 0 0 0 0 0 0 0 0 0 0 0 0 0 0 0 0 0 0 0 0 0 0 0 0 0 0 0 0 0 0 0 0 0 0 0 0 0 0 0 0 0 0 0 0 0 0 0 0 0 0 0 0 0 0 0 0 0 0 0 0 0 0 0 0 0 0 0 0 0 0 0 0 0 0 0 0 0 0 0 0 0 0 0 0 0 0 0 0 0 0 0 0 0 0 0 0 0 0 0 0 0 0 0 0 0 0 0 0 0 0 0 0 0 0 0 0 0 0 0 0 0 0 0 0 0 0 0 0 0 0 0 0 0 0 0 0 0 0 0 0 0 0 0 0 0 0 0 0 0 0 0 0 0 0 0 0 0 0 0 0 0 0 0 0 0 0 0 0 0 0 0 0 0 0 0 0 0 0 0 0 0 0 0 0 0 0 0 0 0 0 0 0 0 0 0 0 0 0 0 0 0 0 0 0 0 0 0 0 0 0 0 0 0 0 0 0 0 0 0 0 0 0 0 0 0 0 0 0 0 0 0 0 0 0 0 0 0 0 0 0 0 0 0 0 0 0 0 0 0 0 0 0 0 0 0 0 0 0 0 0 0 0 0 0 0 0 0 0 0 0 0 0 0 0 0 0 0 0 0 0 0 0 0 0 0 0 0 0 0 0 0 0 0 0 0 0 0 0 0 0 0 0 0 0 0 0 0 0 0 0 0 0 0 0 0 0 0 0 0 0 0 0 0 0 0 0 0 0 0 0 0 0 0 0 0 0 0 0 0 0 0 0 0 0 0 0 0 0 0 0 0 0 0 0 0 0 0 0 0 0 0 0 0 0 0 0 0 0 0 0 0 0 0 0 0 0 0 0 0 0 0 0 0 0 0 0 0 0 0 0 0 0 0 0 0 0 0 0 0 0 0 0 0 0 0 0 0 0 0 0 0 0 0 0 0 0 0 0 0 0 0 0 0 0 0 0 0 0 0 0 0 0 0 0 0 0 0 0 0 0 0 0 0 0 0 0 0 0 0 0 0 0 0 0 0 0 0 0 0 0 0 0 0 0 0 0 0 0 0 0 0 0 0 0 0 0 0 0 0 0 0 0 0 0 0 0 0 0 0 0 0 0 0 0 0 0 0 0 0 0 0 0 0 0 0 0 0 0 0 0 0 0 0 0 0 0 0 0 0 0 0 0 0 0 0 0 0 0 0 0 0 0 0 0 0 0 0 0 0 0 0 0 0 0 0 0 0 0 0 0 0 0 0 0 0 0 0 0 0 0 0 0 0 0 0 0 0 0 0 0 0 0 0 0 0 0 0 0 0 0 0 0 0 0 0 0 0 0 0 0 0 0 0 0 0 0 0 0 0 0 0 0 0 0 0 0 0 0 0 0 0 0 0 0 0 0 0 0 0 0 0 0 0 0 0 0 0 0 0 0 0 0 0 0 0 0 0 0 0 0 0 0 0 0 0 0 0 0 0 0 0 0 0 0 0 0 0 0 0 0 0 0 0 0 0 0 0 0 0 0 0 0 0 0 0 0 0 0 0 0 0 0 0 0 0 0 0 0 0 0 0 0 0 0 0 0 0 0 0 0 0 0 0 0 0 0 0 0 0 0 0 0 0 0 0 0 0 0 0 0 0 0 0 0 0 0 0 0 0 0 0 0 0 0 0 0 0 0 0 0 0 0 0 0 0 0 0 0 0 0 0 0 0 0 0 0 0 0 0 0 0 0 0 0 0 0 0 0 0 0 0 0 0 0 0 0 0 0 0 0 0 0 0 0 0 0 0 0 0 0 0 0 0 0 0 0 0 0 0 0 0 0 0 0 0 0 0 0 0 0 0 0 0 0 0 0 0 0 0 0 0 0 0 0 0 0 0 0 0 0 0 0 0 0 0 0 0 0 0 0 0 0 0 0 0 0 0 0 0 0 0 0 0 0 0 0 0 0 0 0 0 0 0 0 0 0 0 0 0 0 0 
        </DataArray>
        <DataArray Name="p" NumberOfComponents="1" type="Float32" format="ascii">