<?xml version="1.0"?>
<VTKFile type="StructuredGrid" version="0.1" byte_order="LittleEndian">
  <StructuredGrid WholeExtent="0 32 0 32 0 1">
    <Piece Extent="0 32 0 32 0 1">
      <PointData>
      </PointData>
      <CellData>
        <DataArray Name="vx" NumberOfComponents="1" type="Float32" format="ascii">
0.0173178 0.0167397 0.0161267 0.0154997 0.0149265 0.0145219 0.014429 0.0149492 0.0161498 0.0184719 0.0212525 0.023492 0.0250422 0.0256304 0.0256416 0.0253365 0.0247451 0.0241703 0.0234956 0.022856 0.0222871 0.0216863 0.0212067 0.0207023 0.0203147 0.0199649 0.0196507 0.01936 0.0190365 0.0186964 0.0182912 0.0178375 0.0172511 0.016548 0.0157417 0.0147961 0.0138077 0.0128802 0.012327 0.0126115 0.0139883 0.0175236 0.0219199 0.0252455 0.0272805 0.0276418 0.0272131 0.0264685 0.0254795 0.0246627 0.0238056 0.0230754 0.022442 0.0217978 0.02127 0.0207161 0.0202888 0.019932 0.0196153 0.0193408 0.0190332 0.0187076 0.0183051 0.0178272 0.0172426 0.0163618 0.0152671 0.0138216 0.0121688 0.0103372 0.00897194 0.00862431 0.0100417 0.0158217 0.023341 0.0285392 0.031173 0.0309826 0.0296775 0.0281641 0.0264722 0.0252757 0.0241337 0.0232764 0.0225512 0.0218104 0.0212078 0.0205818 0.0201505 0.0198319 0.0195607 0.0193431 0.0190803 0.0187894 0.0183991 0.0178939 0.0173856 0.01627 0.014725 0.0123854 0.00950734 0.00590316 0.00317237 0.00151215 0.0026954 0.0127427 0.0261537 0.0349443 0.0385278 0.0369814 0.0337832 0.0307267 0.0277081 0.0258499 0.0242384 0.0232346 0.0225321 0.0218407 0.0212538 0.0204951 0.0200148 0.0197146 0.0194846 0.0193415 0.0191506 0.0189307 0.0185939 0.0180953 0.0176477 0.0161759 0.0139133 0.0102552 0.00562037 -0.000351815 -0.00480019 -0.00902561 -0.00894174 0.00833425 0.0315763 0.0456206 0.04964 0.0457825 0.0398943 0.0346394 0.0295832 0.0266789 0.0243994 0.0232011 0.0224492 0.021682 0.0209755 0.020024 0.0196121 0.0194699 0.0193964 0.0194041 0.0193324 0.0192141 0.0189482 0.0184566 0.0181869 0.0163003 0.0131012 0.00764398 0.000978839 -0.00757996 -0.00956348 -0.014923 -0.0150149 0.00827707 0.0345506 0.0537449 0.0614338 0.0562201 0.0471579 0.0391887 0.0313559 0.0270091 0.0236523 0.0221387 0.0216876 0.0214888 0.0211251 0.019841 0.0192766 0.0192054 0.0192389 0.0194093 0.0194976 0.0195469 0.0194367 0.0190372 0.0190995 0.0169117 0.0130299 0.00711133 0.00166335 -0.00147882 0.00620708 0.00689475 0.0113015 0.0209351 0.0256996 0.0374595 0.0480414 0.0490402 0.0464669 0.0412228 0.0323368 0.0269102 0.0227094 0.0204938 0.0196243 0.0196627 0.0194448 0.0182613 0.0183127 0.0187868 0.0191849 0.0196208 0.0199106 0.0201489 0.0202187 0.0199555 0.0207948 0.0191837 0.0161603 0.0131567 0.0129136 0.0190325 0.016616 0.0248667 0.0427325 0.0323475 0.0159164 0.00982273 0.0145442 0.0192621 0.0251551 0.0318875 0.0271801 0.0230487 0.0177998 0.0147504 0.0150687 0.0165026 0.0182546 0.0180618 0.0177429 0.0183355 0.0189025 0.0195816 0.0201461 0.0206871 0.0211005 0.0212396 0.0236135 0.0235351 0.0230245 0.0243329 0.0285567 0.0304224 0.0330885 0.0457818 0.0502866 0.0338818 0.013755 -0.000831279 -0.0018022 0.00369244 0.00753642 0.0162416 0.0174021 0.0169989 0.0151866 0.0175484 0.0174662 0.012826 0.0144575 0.016831 0.0172998 0.0185257 0.0193069 0.020115 0.0208473 0.0216305 0.0224225 0.0231441 0.0268186 0.0293106 0.0317488 0.0372454 0.0384164 0.0437022 0.0538005 0.0553755 0.0477613 0.0311131 0.0132005 -0.00132985 -0.0101113 -0.00408661 0.00181919 0.00317672 0.00842228 0.01198 0.0163965 0.0208014 0.0181914 0.0131545 0.0109268 0.0118137 0.0148234 0.0169488 0.0186303 0.0198125 0.0209826 0.0221763 0.0234936 0.0250855 0.0303387 0.0353802 0.0426957 0.0505426 0.0571159 0.062617 0.0627443 0.0568913 0.0448996 0.0290371 0.0121195 -0.00243276 -0.0151567 -0.0148005 -0.0102774 -0.00891708 -0.00182369 0.00599719 0.0135462 0.0184589 0.017249 0.0152331 0.0152753 0.0157737 0.0175474 0.0184569 0.0195057 0.0204276 0.0215998 0.022956 0.0246792 0.0269884 0.0327914 0.040474 0.0518476 0.0646358 0.080805 0.0825892 0.0695833 0.0575726 0.0423297 0.0269126 0.0106015 -0.00410972 -0.0200857 -0.025588 -0.0306548 -0.0266979 -0.0118731 -0.00235081 0.00661 0.0114898 0.0144682 0.0149457 0.016219 0.0180413 0.0189086 0.0188614 0.0194736 0.0203152 0.0215829 0.0231452 0.0252081 0.0282026 0.0326623 0.0402446 0.0515811 0.0633944 0.0782051 0.0798631 0.0673567 0.0555536 0.0404117 0.0253225 0.0090654 -0.005753 -0.021983 -0.0278319 -0.0352976 -0.0312103 -0.0144776 -0.00532605 0.0036581 0.00574672 0.0106218 0.0164488 0.0177167 0.0185391 0.0186794 0.0186555 0.019287 0.0201823 0.0214702 0.0230473 0.0251063 0.0280845 0.0299818 0.0349835 0.0426072 0.0489966 0.052741 0.0563845 0.0570845 0.0523328 0.0396605 0.0242567 0.00719961 -0.00789912 -0.0205551 -0.0194037 -0.015473 -0.0139066 -0.0068744 0.000577867 0.00664534 0.00848345 0.0123913 0.0173898 0.0178783 0.0181514 0.017982 0.0180675 0.0187325 0.0196361 0.0208939 0.0223411 0.0241548 0.0264909 0.025668 0.0278023 0.0296338 0.0338183 0.0294205 0.031108 0.0445767 0.0478335 0.0392167 0.0234346 0.00542488 -0.00993819 -0.0185241 -0.0114591 -0.00186621 -0.000214161 0.00402052 0.00855931 0.0119063 0.0134919 0.0158873 0.018148 0.0174817 0.0174813 0.0173637 0.0175363 0.0182889 0.0191519 0.0202866 0.0214716 0.0227421 0.0241743 0.0224408 0.0222813 0.022346 0.02483 0.0297055 0.0344498 0.0408845 0.0473917 0.0421168 0.0242896 0.00326055 -0.0135819 -0.0123871 -0.00277551 0.00258417 0.0101188 0.0139142 0.0158009 0.0162205 0.0177269 0.0195701 0.0200117 0.0183119 0.0179545 0.0175362 0.0174269 0.0180771 0.0187437 0.0196968 0.0205829 0.0214306 0.0220655 0.0192638 0.0172218 0.0141697 0.0122394 0.0157748 0.0283049 0.0305618 0.0337538 0.0382358 0.0233912 0.00343961 -0.00669448 0.0104032 0.0157447 0.0140898 0.0253479 0.023332 0.0211485 0.0183872 0.0218146 0.025202 0.0226513 0.01828 0.017832 0.0176871 0.0175236 0.0183081 0.0187829 0.0194802 0.0199647 0.0202542 0.0201256 0.0175069 0.0146632 0.00986722 0.00362104 -0.0017159 0.000181304 0.00759955 0.0120108 0.0164119 0.0173886 0.0118045 0.0190206 0.0256202 0.0254432 0.0335838 0.0348264 0.0288519 0.0231957 0.021869 0.0281559 0.0310534 0.0232719 0.0172507 0.0197115 0.0195144 0.0185019 0.0189949 0.0191145 0.0195063 0.0196214 0.0195019 0.018916 0.0169321 0.0143381 0.0100925 0.00379065 -0.00395428 -0.0114785 -0.0152071 -0.0145155 -0.00494999 0.0155229 0.0369461 0.0558078 0.0573144 0.0502185 0.0472114 0.0396919 0.0316291 0.0268905 0.0269769 0.0194147 0.0119572 0.00753742 0.00197811 0.0101767 0.0182208 0.0190111 0.0200999 0.0200971 0.0201601 0.0198694 0.0193397 0.0184578 0.0167479 0.014612 0.0113873 0.0069235 0.00102807 -0.00516254 -0.010917 -0.01379 -0.00723785 0.0141496 0.0420604 0.0579753 0.0572424 0.0495641 0.0437095 0.0379189 0.0331562 0.031631 0.0260436 0.0176697 0.013874 0.0238994 0.0114724 0.00209707 0.0177625 0.0197624 0.0213803 0.0211713 0.0208414 0.0202003 0.0193381 0.0182663 0.0169976 0.0152716 0.0129574 0.0100106 0.00626986 0.00236572 -0.00104752 -0.00199863 0.00269407 0.0162507 0.034249 0.0442534 0.0450462 0.0411262 0.0380404 0.0333038 0.0321795 0.0216264 0.0159379 0.0211262 0.018004 0.0187695 0.0187886 0.0193386 0.0206206 0.0234505 0.0230955 0.0227787 0.0217684 0.0208149 0.0196434 0.0184488 0.0172201 0.0157778 0.0140703 0.0122064 0.0100297 0.00806693 0.00656974 0.00677319 0.0102395 0.0181089 0.0283202 0.0344157 0.0359844 0.0346252 0.0337325 0.0318655 0.0343512 0.0279817 0.0268295 0.0325296 0.0305686 0.0254952 0.0555122 0.0657794 0.0365585 0.0328259 0.0272452 0.0252249 0.0229504 0.0214436 0.0199361 0.0186234 0.0174737 0.016296 0.015015 0.0137699 0.012475 0.0115119 0.011028 0.0117802 0.0143719 0.0190564 0.0248411 0.0286561 0.0301995 0.0300996 0.0296224 0.0295562 0.0306881 0.035998 0.0368301 0.0341396 0.0328243 0.0271649 0.0335118 0.0335464 0.0245426 0.0259056 0.0243812 0.0237862 0.0223258 0.0211697 0.0198577 0.0186974 0.0176715 0.016689 0.0157035 0.0148565 0.014098 0.0137014 0.0137312 0.0145903 0.0165263 0.0195296 0.0230687 0.0255914 0.0267757 0.0269771 0.0260941 0.0258764 0.0233385 0.0302225 0.0273832 0.0233425 0.0321529 0.0361202 0.0241978 0.0174377 0.0253139 0.0253297 0.0246935 0.0236889 0.0222743 0.0210805 0.019831 0.0187546 0.0177921 0.0170103 0.0162603 0.0156669 0.0152109 0.015084 0.0153238 0.0161555 0.0176493 0.0197204 0.0220302 0.0238176 0.0247066 0.0250003 0.0240606 0.0235656 0.0209725 0.0223874 0.0276267 0.0249523 0.0206823 0.0252511 0.0242066 0.0239186 0.026232 0.0242835 0.023324 0.0224356 0.0213943 0.020499 0.0195263 0.0186689 0.0178683 0.017232 0.0166509 0.0162293 0.0159649 0.01599 0.016325 0.0170882 0.0182826 0.019826 0.0214824 0.0228677 0.0236369 0.0240404 0.023355 0.0229108 0.020543 0.0191008 0.0187607 0.0165868 0.015746 0.020423 0.0236694 0.023652 0.023936 0.0227264 0.0222214 0.0215805 0.0208049 0.0200945 0.0193062 0.0185943 0.017878 0.0173661 0.0169121 0.0166032 0.0164489 0.0165448 0.0169048 0.0175979 0.0185964 0.019834 0.0211262 0.0222756 0.0229848 0.0234678 0.0231056 0.0229507 0.0215176 0.0206855 0.0190343 0.0171639 0.018068 0.0207789 0.0225874 0.0219924 0.0220296 0.0213676 0.0210648 0.0206399 0.0201162 0.0196141 0.0190202 0.018461 0.0178546 0.017417 0.0170388 0.0167929 0.0166958 0.0168221 0.0171836 0.0178276 0.0187168 0.0198027 0.0209311 0.021978 0.022706 0.0232682 0.0231937 0.0232161 0.0223218 0.0218464 0.020723 0.0196358 0.0199683 0.0206451 0.0213058 0.020859 0.0209228 0.0205867 0.0204013 0.0201062 0.0197182 0.0193176 0.0188282 0.0183518 0.0177864 0.0173911 0.0170496 0.0168252 0.016741 0.0168645 0.0172099 0.0178255 0.0186713 0.0197149 0.0208085 0.0218331 0.0225986 0.0231872 0.0232887 0.023388 0.0228517 0.0225529 0.0218053 0.0210459 0.0209498 0.0208788 0.0210182 0.0205796 0.0204963 0.0201919 0.0199891 0.0197322 0.019409 0.0190671 0.0186472 0.0182275 0.0176908 0.0172985 0.016951 0.016705 0.0165893 0.0166764 0.0169883 0.0175954 0.01846 0.0195727 0.0207656 0.0218703 0.0227274 0.0233428 0.0235442 0.0236486 0.0232738 0.0229887 0.0223861 0.0217824 0.0214987 0.021111 0.0209603 0.0205215 0.0203325 0.0200375 0.0198105 0.0195545 0.0192445 0.0189141 0.018518 0.0181152 0.0175681 0.0171463 0.0167539 0.0164425 0.0162497 0.0162604 0.0165134 0.0171217 0.0180557 0.0193574 0.0207971 0.0220882 0.0230888 0.0237209 0.0239499 0.0239941 0.0236681 0.0233441 0.0228037 0.0222438 0.0218395 0.0213545 0.02105 0.0205962 0.0203133 0.0199916 0.0197219 0.0194464 0.0191307 0.0187984 0.0184083 0.0180025 0.0174409 0.0169581 0.0164786 0.0160439 0.0157027 0.01556 0.0156885 0.0162838 0.0173409 0.0190152 0.0209363 0.0225835 0.0238115 0.0244454 0.0246233 0.0245405 0.0241429 0.0237218 0.0231482 0.0225714 0.0220874 0.0215447 0.0211422 0.0206698 0.0203255 0.0199852 0.019684 0.0193926 0.0190676 0.0187282 0.018332 0.0179077 
        </DataArray>
        <DataArray Name="vy" NumberOfComponents="1" type="Float32" format="ascii">
0.0135598 0.0134356 0.0131855 0.0127798 0.0120965 0.0111473 0.00978291 0.00821107 0.00651513 0.00514958 0.00513546 0.00604628 0.00753446 0.00916093 0.0103648 0.0114419 0.0120735 0.0126436 0.012941 0.0132667 0.0134318 0.0136216 0.0136922 0.0137608 0.0137505 0.0137347 0.013705 0.0136707 0.0136556 0.0136374 0.0136358 0.0136119 0.0141318 0.0140817 0.0138758 0.0134923 0.0127129 0.0115671 0.00966175 0.00739934 0.00453732 0.00214082 0.00219253 0.00392907 0.006411 0.00895136 0.0106165 0.0120137 0.0127595 0.013341 0.0136811 0.0139264 0.0141083 0.0142134 0.0142486 0.0142193 0.0141242 0.0140486 0.013985 0.0139546 0.0139659 0.0139977 0.0140596 0.0141099 0.0148387 0.0149625 0.0149251 0.0147271 0.0139499 0.0126617 0.00989186 0.00666918 0.00156769 -0.00274278 -0.00259534 0.000710088 0.005105 0.00923375 0.0115065 0.0132114 0.0138858 0.0143186 0.0145526 0.0146001 0.014727 0.0147421 0.0147956 0.0147158 0.0145441 0.0144098 0.0143016 0.0142636 0.0142942 0.0143782 0.0145199 0.0146819 0.0156426 0.0160681 0.0164016 0.0166432 0.0161805 0.014955 0.0112624 0.00653857 -0.0027898 -0.0112073 -0.0106136 -0.00377425 0.00406783 0.0104776 0.013367 0.0152429 0.0155854 0.0156728 0.0156833 0.0155184 0.0156097 0.0155336 0.0155425 0.0152601 0.0148881 0.0146296 0.0144604 0.0144264 0.014502 0.0146727 0.0149361 0.0152664 0.0166547 0.0176448 0.0187575 0.0199436 0.020169 0.0191053 0.0134391 0.00798601 -0.00974986 -0.0257082 -0.024744 -0.0115273 0.00305289 0.0138013 0.0176635 0.019397 0.0187295 0.0178493 0.0171476 0.0163098 0.0160918 0.0159478 0.0161832 0.0159009 0.0153409 0.0149482 0.0146863 0.0146226 0.0147161 0.0149606 0.0153597 0.0159186 0.0179007 0.0198389 0.0223488 0.0251128 0.0268524 0.0260859 0.0196852 0.0110527 -0.021257 -0.0522226 -0.048504 -0.0216811 0.00462008 0.0199802 0.0245805 0.0256403 0.0233986 0.020932 0.0191014 0.0176841 0.0170025 0.0169139 0.0173768 0.0165789 0.0154855 0.0148304 0.0145016 0.0144759 0.0146594 0.015048 0.0156624 0.0165736 0.0193851 0.0227286 0.0273553 0.0319309 0.0347829 0.0296503 0.0166454 0.017318 -0.0332734 -0.074218 -0.0706082 -0.0389334 0.00163726 0.0257569 0.0345453 0.0352987 0.0307801 0.0257005 0.021741 0.0184691 0.0166132 0.0165968 0.0179859 0.0175754 0.0159987 0.0149789 0.0144959 0.0144024 0.0145947 0.0150611 0.0158755 0.0172048 0.0209226 0.025923 0.0322363 0.0367191 0.035751 0.0239125 0.0121968 0.00674283 -0.0382096 -0.0668011 -0.0657151 -0.0449697 -0.00401935 0.0200114 0.0338538 0.0399487 0.037515 0.0309396 0.0253804 0.0222534 0.0162718 0.0163987 0.0194754 0.0176026 0.0151113 0.0139568 0.0136455 0.013735 0.0140854 0.0147263 0.0158131 0.0176927 0.0215241 0.0273061 0.0337501 0.034618 0.0306916 0.0232224 0.0102721 -0.0109814 -0.0368107 -0.0480144 -0.0473178 -0.0379866 -0.0076822 0.0147117 0.0226798 0.0339405 0.0394522 0.0351632 0.0282262 0.0219463 0.0155338 0.0147483 0.016708 0.0172547 0.0156738 0.0137253 0.0132483 0.0131913 0.0135116 0.0141496 0.0153498 0.0175424 0.0204536 0.0263216 0.0312535 0.0304738 0.0285727 0.0182 0.000844274 -0.0119912 -0.0251603 -0.0308464 -0.0310687 -0.0274711 -0.0094876 0.0116991 0.0194119 0.0293451 0.0363464 0.0337142 0.0259616 0.0198251 0.0197274 0.0179011 0.0155569 0.0152729 0.0136371 0.0120758 0.0120438 0.0121848 0.012523 0.0131213 0.0142464 0.0164538 0.0174315 0.02236 0.0261461 0.0275875 0.0254503 0.00871902 -0.00170359 -0.00678818 -0.0119702 -0.0140228 -0.0149139 -0.0148379 -0.00703777 0.00516533 0.0161004 0.0269873 0.030669 0.0263904 0.0196866 0.0194846 0.0241661 0.0222009 0.0174286 0.0137871 0.0104302 0.00991675 0.0104235 0.0108676 0.011198 0.0116683 0.0125021 0.0142382 0.0119913 0.0139572 0.0158505 0.0166522 0.0156274 0.0125124 0.00739281 0.00553473 0.00316697 0.00172965 0.000584811 -0.000253289 0.00215612 0.00667826 0.0131638 0.0211171 0.0224043 0.0180574 0.0135545 0.0155676 0.0238832 0.0213173 0.0150076 0.0128515 0.0104128 0.00997063 0.00998817 0.010001 0.00995228 0.00998235 0.0101794 0.0107414 0.00525801 0.00360906 0.00194758 -0.00025898 0.00657964 0.0208478 0.022236 0.0201875 0.0185411 0.0173 0.0161616 0.0154692 0.0145822 0.0166403 0.0169596 0.00782975 0.00657123 0.00755009 0.00711603 0.0111232 0.0202813 0.0188771 0.0138438 0.0115721 0.010028 0.00947684 0.00911079 0.00879956 0.00844958 0.00806971 0.00752347 0.00671625 -0.000349313 -0.00512559 -0.00825002 -0.0105264 -0.00257112 0.0250822 0.0321057 0.0329831 0.0337205 0.033137 0.0320334 0.0306865 0.0245792 0.020124 0.0161265 0.000542911 -0.00379022 -0.000731484 0.00263693 0.00749309 0.0144825 0.0148659 0.0131174 0.0116056 0.0102636 0.00921835 0.00843631 0.00772281 0.00706253 0.0062681 0.00510687 0.00308061 -0.00310021 -0.00862028 -0.0118393 -0.0087632 -0.00114927 0.0170534 0.0253354 0.0373283 0.0463038 0.0492534 0.0479653 0.0431486 0.0257446 0.0132116 0.01018 -0.000127674 -0.00794972 -0.00597694 -0.00055832 0.00516567 0.0114398 0.0131646 0.0127763 0.0114108 0.0101696 0.00871023 0.00764259 0.0066509 0.0058221 0.00484241 0.00344864 0.00098737 -0.00396785 -0.00942933 -0.0141158 -0.0107233 0.00028417 0.0109385 0.0147832 0.0378934 0.0589216 0.0672473 0.0656547 0.0552492 0.0244783 0.00328756 0.00428023 -0.00427632 -0.0124461 -0.00868353 -0.00225987 0.00319199 0.0100943 0.0137182 0.0137826 0.0118633 0.0102912 0.00822838 0.00685766 0.00563769 0.00473302 0.00373981 0.00238586 3.37705e-05 -0.00328012 -0.00852958 -0.01435 -0.0171603 -0.0106472 0.00453909 0.015642 0.034653 0.0690684 0.087034 0.0843751 0.0592158 0.0123151 0.00274749 -0.00258116 -0.0119161 -0.0137221 -0.00803607 -0.00237743 0.00220068 0.00928531 0.0148334 0.0137854 0.0120061 0.0104589 0.00800193 0.00637239 0.00499246 0.00404596 0.00313391 0.00200428 3.49667e-05 -0.0010933 -0.0045062 -0.00895334 -0.0130651 -0.013769 -0.00733383 0.00958337 0.0294858 0.0728806 0.102554 0.095823 0.0524734 0.00186549 -0.0019077 -0.00888156 -0.0136565 -0.00948721 -0.0042104 -0.00357343 -0.00552265 0.00963489 0.0216264 0.0185385 0.0135345 0.0110313 0.00780931 0.0058111 0.00444331 0.00358879 0.00292888 0.00220025 0.000980635 0.00100216 -0.000796206 -0.00309955 -0.00548296 -0.00626444 -0.00364043 0.00476891 0.0252723 0.061374 0.0909527 0.0827847 0.0424397 0.00639008 -0.00531552 -0.00744636 -0.00606859 -0.00104372 -9.50053e-05 -0.00681049 -0.00442217 0.0147774 0.0316549 0.0122701 0.00882203 0.0105327 0.00787554 0.00558815 0.00429076 0.00354046 0.00312457 0.0027216 0.00207902 0.00298488 0.00230835 0.00150148 0.000781867 0.00120519 0.00363051 0.0104186 0.0226717 0.0433192 0.0607415 0.0554796 0.0325535 0.0116395 0.00414567 0.000965733 0.00096905 0.00226803 0.000388237 0.00233778 0.0085741 0.0149933 0.0322329 0.0163965 0.002459 0.00393519 0.00709379 0.00537877 0.00461894 0.00397081 0.00379046 0.00362049 0.00339937 0.00464484 0.00461179 0.00464712 0.0049813 0.00602631 0.00851846 0.0131351 0.0212356 0.0322386 0.0412107 0.03849 0.0261875 0.014551 0.00806714 0.00533912 0.0051966 0.00658459 0.00659112 0.00781935 0.00926933 0.0140289 0.0343581 0.0366879 -0.00497043 -0.00897276 0.0022837 0.00353993 0.00434414 0.00433161 0.00453309 0.00461018 0.00467136 0.00616077 0.00636659 0.00672236 0.00744561 0.00870614 0.0109436 0.0143712 0.0194443 0.0251789 0.0295498 0.0280592 0.0218075 0.0152432 0.0104083 0.00807032 0.006718 0.0120286 0.0169639 0.00346406 0.00457562 0.0156753 0.0242972 0.017665 0.00408701 0.00326446 0.00692869 0.00696941 0.00657891 0.00615874 0.00607211 0.00603235 0.00608958 0.00745919 0.00775691 0.00821576 0.00904012 0.0101976 0.0120426 0.0143924 0.0176339 0.0207924 0.0230617 0.0221441 0.0185273 0.0144453 0.0105043 0.00809734 0.00531425 0.00961782 0.0160682 0.00282974 0.00685439 0.0222877 0.0147194 -0.00576768 0.0173352 0.0170875 0.0107423 0.00949042 0.0082578 0.00769242 0.00743349 0.00732588 0.00735644 0.00857921 0.00884142 0.0092543 0.00998335 0.0109425 0.0123753 0.0140341 0.016137 0.0179233 0.0191147 0.0185305 0.0164252 0.0137858 0.0108201 0.00846724 0.0056255 0.00575439 0.0103929 0.00937573 0.00335052 0.0214376 0.0224463 0.00918465 0.0157956 0.0109374 0.00859373 0.00940241 0.00912064 0.00890271 0.00868676 0.0085466 0.00851727 0.00950496 0.00970806 0.0100429 0.0106303 0.0113605 0.0124041 0.0135151 0.0148472 0.0158729 0.0165092 0.0161171 0.0148434 0.0131431 0.0111306 0.00930688 0.00740278 0.00575792 0.00768153 0.0107341 0.00252267 0.0150774 0.021073 0.0151165 0.0134583 0.0107747 0.0108024 0.0109846 0.0105211 0.0101532 0.009822 0.00959354 0.00949225 0.0102529 0.0103799 0.0106112 0.0110277 0.0115359 0.0122452 0.0129652 0.01379 0.0143717 0.0147068 0.0144476 0.0137059 0.0126427 0.0114071 0.0101188 0.00905337 0.00760521 0.00733145 0.00667183 0.00960718 0.0156921 0.0178552 0.0127299 0.0122482 0.0113278 0.0114636 0.0114875 0.0111773 0.0109174 0.0106253 0.0104048 0.0102777 0.0108587 0.0109139 0.011046 0.0113019 0.0116079 0.0120294 0.012434 0.0128805 0.0131647 0.0133042 0.0131197 0.0126885 0.0120534 0.0113512 0.0105167 0.00998728 0.00909704 0.00928182 0.00886939 0.00999123 0.0123554 0.013661 0.0121044 0.012362 0.0121368 0.0122319 0.0121427 0.0118576 0.0115922 0.0112946 0.0110668 0.0109177 0.0113559 0.0113466 0.0113822 0.0114846 0.0116044 0.0117765 0.0119234 0.0120806 0.0121493 0.012152 0.0120201 0.0118021 0.0114857 0.0111912 0.0107466 0.0105887 0.0100206 0.0103151 0.00977606 0.0108851 0.0117235 0.0126531 0.0119491 0.0122831 0.0122499 0.0123427 0.0123274 0.0121583 0.0119817 0.0117535 0.0115721 0.0114332 0.0117909 0.011725 0.0116732 0.0116376 0.0115859 0.0115319 0.0114411 0.0113378 0.0112101 0.011081 0.0109769 0.0109027 0.0108296 0.0108218 0.0106811 0.0107615 0.010476 0.0108487 0.0105381 0.0113336 0.011587 0.0122633 0.0121048 0.0124487 0.0125314 0.0126284 0.0126296 0.0125023 0.0123608 0.0121735 0.0120201 0.0118865 0.0121941 0.0120815 0.01195 0.011787 0.0115695 0.0112993 0.0109708 0.0106092 0.0102739 0.00999892 0.00991797 0.00998302 0.0101562 0.0104309 0.0105968 0.0109135 0.0109123 0.0113276 0.0112133 0.0118082 0.0119402 0.012428 0.0124045 0.0126554 0.0127373 0.0128128 0.0128274 0.0127491 0.0126605 0.0125291 0.0124162 0.0122989 0.0126082 0.0124656 0.0122702 0.0119982 0.0116193 0.0111286 0.0105276 0.00985825 0.00924548 0.00876155 0.00869805 0.00892818 0.00939172 0.00997902 0.0104424 0.0109777 0.0112137 0.0116828 0.0117484 0.0122398 0.0123564 0.0127239 0.0127813 0.0129792 0.0130528 0.0131056 0.0131118 0.0130543 0.0129922 0.0128975 0.0128145 0.0127144 0.0130462 0.0128922 0.0126491 0.0122866 0.011749 0.0110348 0.0101118 0.00906954 0.00805496 0.00724878 0.00720515 0.00768479 0.00853896 0.00954109 0.0103429 0.0111334 0.0115955 0.0121268 0.0123407 0.0127447 0.0128925 0.0131606 0.0132249 0.0133453 0.0133741 0.0133913 0.0133831 0.0133433 0.0133094 0.0132549 0.0132098 0.0131389 
        </DataArray>
        <DataArray Name="vz" NumberOfComponents="1" type="Float32" format="ascii">
0 0 0 0 0 0 0 0 0 0 0 0 0 0 0 0 0 0 0 0 0 0 0 0 0 0 0 0 0 0 0 0 0 0 0 0 0 0 0 0 0 0 0 0 0 0 0 0 0 0 0 0 0 0 0 0 0 0 0 0 0 0 0 0 0 0 0 0 0 0 0 0 0 0 0 0 0 0 0 0 0 0 0 0 0 0 0 0 0 0 0 0 0 0 0 0 0 0 0 0 0 0 0 0 0 0 0 0 0 0 0 0 0 0 0 0 0 0 0 0 0 0 0 0 0 0 0 0 0 0 0 0 0 0 0 0 0 0 0 0 0 0 0 0 0 0 0 0 0 0 0 0 0 0 0 0 0 0 0 0 0 0 0 0 0 0 0 0 0 0 0 0 0 0 0 0 0 0 0 0 0 0 0 0 0 0 0 0 0 0 0 0 0 0 0 0 0 0 0 0 0 0 0 0 0 0 0 0 0 0 0 0 0 0 0 0 0 0 0 0 0 0 0 0 0 0 0 0 0 0 0 0 0 0 0 0 0 0 0 0 0 0 0 0 0 0 0 0 0 0 0 0 0 0 0 0 0 0 0 0 0 0 0 0 0 0 0 0 0 0 0 0 0 0 0 0 0 0 0 0 0 0 0 0 0 0 0 0 0 0 0 0 0 0 0 0 0 0 0 0 0 0 0 0 0 0 0 0 0 0 0 0 0 0 0 0 0 0 0 0 0 0 0 0 0 0 0 0 0 0 0 0 0 0 0 0 0 0 0 0 0 0 0 0 0 0 0 0 0 0 0 0 0 0 0 0 0 0 0 0 0 0 0 0 0 0 0 0 0 0 0 0 0 0 0 0 0 0 0 0 0 0 0 0 0 0 0 0 0 0 0 0 0 0 0 0 0 0 0 0 0 0 0 0 0 0 0 0 0 0 0 0 0 0 0 0 0 0 0 0 0 0 0 0 0 0 0 0 0 0 0 0 0 0 0 0 0 0 0 0 0 0 0 0 0 0 0 0 0 0 0 0 0 0 0 0 0 0 0 0 0 0 0 0 0 0 0 0 0 0 0 0 0 0 0 0 0 0 0 0 0 0 0 0 0 0 0 0 0 0 0 0 0 0 0 0 0 0 0 0 0 0 0 0 0 0 0 0 0 0 0 0 0 0 0 0 0 0 0 0 0 0 0 0 0 0 0 0 0 0 0 0 0 0 0 0 0 0 0 0 0 0 0 0 0 0 0 0 0 0 0 0 0 0 0 0 0 0 0 0 0 0 0 0 0 0 0 0 0 0 0 0 0 0 0 0 0 0 0 0 0 0 0 0 0 0 0 0 0 0 0 0 0 0 0 0 0 0 0 0 0 0 0 0 0 0 0 0 0 0 0 0 0 0 0 0 0 0 0 0 0 0 0 0 0 0 0 0 0 0 0 0 0 0 0 0 0 0 0 0 0 0 0 0 0 0 0 0 0 0 0 0 0 0 0 0 0 0 0 0 0 0 0 0 0 0 0 0 0 0 0 0 0 0 0 0 0 0 0 0 0 0 0 0 0 0 0 0 0 0 0 0 0 0 0 0 0 0 0 0 0 0 0 0 0 0 0 0 0 0 0 0 0 0 0 0 0 0 0 0 0 0 0 0 0 0 0 0 0 0 0 0 0 0 0 0 0 0 0 0 0 0 0 0 0 0 0 0 0 0 0 0 0 0 0 0 0 0 0 0 0 0 0 0 0 0 0 0 0 0 0 0 0 0 0 0 0 0 0 0 0 0 0 0 0 0 0 0 0 0 0 0 0 0 0 0 0 0 0 0 0 0 0 0 0 0 0 0 0 0 0 0 0 0 0 0 0 0 0 0 0 0 0 0 0 0 0 0 0 0 0 0 0 0 0 0 0 0 0 0 0 0 0 0 0 0 0 0 0 0 0 0 0 0 0 0 0 0 0 0 0 0 0 0 0 0 0 0 0 0 0 0 0 0 0 0 0 0 0 0 0 0 0 0 0 0 0 0 0 0 0 0 0 0 0 0 0 0 0 0 0 0 0 0 0 0 0 0 0 0 0 0 0 0 0 0 0 0 0 0 0 0 0 0 0 0 0 0 0 0 0 0 0 0 0 0 0 0 0 0 0 0 0 0 0 0 0 0 0 0 0 0 0 0 0 0 0 0 0 0 0 0 0 0 0 0 0 0 0 0 0 0 0 0 0 0 0 0 0 0 0 0 0 0 0 0 0 0 0 0 0 0 0 0 0 0 0 0 0 0 0 0 0 0 0 0 0 0 0 0 0 0 0 0 0 0 0 0 0 0 0 0 0 0 
        </DataArray>
        <DataArray Name="p" NumberOfComponents="1" type="Float32" format="ascii">