<?xml version="1.0"?>
<VTKFile type="StructuredGrid" version="0.1" byte_order="LittleEndian">
  <StructuredGrid WholeExtent="0 32 0 32 0 1">
    <Piece Extent="0 32 0 32 0 1">
      <PointData>
      </PointData>
      <CellData>
        <DataArray Name="vx" NumberOfComponents="1" type="Float32" format="ascii">
0.0231389 0.0237842 0.0242819 0.0245355 0.0244545 0.0238941 0.0230823 0.0219276 0.0204881 0.0193098 0.0182784 0.0174291 0.0170809 0.0171082 0.0173462 0.0176681 0.0179542 0.0180889 0.0181438 0.0180416 0.0179335 0.0179273 0.0179631 0.0181605 0.0184365 0.0188238 0.0192839 0.019815 0.0204042 0.0210459 0.0217291 0.0224397 0.02361 0.0245098 0.0252618 0.0257434 0.0257368 0.0249884 0.0239436 0.0223637 0.0203389 0.0187633 0.0173254 0.0160333 0.0156022 0.0157858 0.0162216 0.016794 0.0173178 0.0176585 0.0179812 0.0180495 0.0180982 0.0182276 0.0182611 0.0184481 0.0186497 0.018969 0.0193613 0.0198491 0.0204264 0.0210994 0.0218634 0.0227158 0.0241034 0.0253756 0.0265145 0.027417 0.0275635 0.0265407 0.0253886 0.0231298 0.0199308 0.0178752 0.0160427 0.0140716 0.0136026 0.0141794 0.0149664 0.0159358 0.0167633 0.0173057 0.0179401 0.018139 0.018299 0.0185413 0.0184932 0.0186609 0.0187685 0.0190215 0.0193444 0.0197895 0.0203548 0.0210633 0.0219216 0.0229527 0.0245523 0.0263752 0.0281139 0.0298426 0.0302462 0.0287337 0.0269786 0.0237881 0.0197556 0.0171655 0.0144342 0.0110392 0.0106077 0.0121473 0.0135627 0.0151817 0.0164275 0.0171464 0.0181411 0.018248 0.0183995 0.0188864 0.0187003 0.0188563 0.0188293 0.0189972 0.0192274 0.0196119 0.0201477 0.0208802 0.0218318 0.0230739 0.0248143 0.0274099 0.0300332 0.0333295 0.0339433 0.0315405 0.0279842 0.023669 0.0200351 0.0160417 0.0119055 0.00660344 0.00629485 0.00975502 0.0120806 0.014599 0.0161958 0.0169484 0.018551 0.0186945 0.0188823 0.0195173 0.0188761 0.0189648 0.018746 0.0188229 0.0189499 0.0192602 0.0197429 0.0204718 0.0214916 0.0229543 0.0245257 0.0281235 0.0320704 0.0387632 0.0406965 0.0342257 0.0283842 0.0237317 0.0191447 0.0125817 0.00664168 -0.00180241 -0.00144469 0.00691965 0.010839 0.0147698 0.0169037 0.017442 0.0196112 0.0185278 0.0183144 0.02025 0.0191972 0.0192089 0.0187057 0.0186121 0.0185679 0.0187399 0.019098 0.0197378 0.0207245 0.0223223 0.0235932 0.0283428 0.0344375 0.0473293 0.0555934 0.0449739 0.0327349 0.0258771 0.0190711 0.0111537 0.0035799 -0.0122849 -0.0116297 0.00454924 0.0104528 0.0157962 0.0173524 0.0169334 0.0188771 0.0173847 0.019379 0.02204 0.0191537 0.0189594 0.0182403 0.0180605 0.017915 0.017964 0.0181712 0.0186513 0.0195014 0.0211133 0.0202888 0.0252551 0.0329202 0.0542965 0.0690589 0.0514273 0.0333951 0.0264476 0.0193251 0.0121113 0.00188624 -0.0233616 -0.0207066 0.00527711 0.0136121 0.0201943 0.0229088 0.0258767 0.0242215 0.024099 0.0283186 0.025281 0.0208751 0.0194177 0.0181979 0.0176327 0.0172415 0.0170282 0.0169222 0.0169872 0.0173095 0.0183104 0.0157118 0.0188053 0.026099 0.0454282 0.0712726 0.0550078 0.0302835 0.0255799 0.0207696 0.0168434 0.00691069 -0.0213264 -0.0141061 0.013073 0.0224611 0.0277845 0.0311759 0.0326555 0.0255525 0.0233342 0.0200694 0.016194 0.017859 0.0169557 0.0168788 0.0164892 0.0162286 0.0159072 0.0155588 0.0151898 0.0148789 0.0149052 0.00573355 0.000564268 0.00161335 -0.00793107 0.016414 0.0307148 0.00915676 0.0194112 0.0225997 0.0312503 0.0231722 0.0179393 0.036627 0.0349444 0.039279 0.0362039 0.0319906 0.0286424 0.0226002 0.0203092 0.0179553 0.014995 0.0167594 0.015922 0.0159994 0.0156042 0.0152921 0.0147488 0.0139614 0.0127458 0.01106 0.00843522 -0.000924746 -0.0127959 -0.0300008 -0.0718509 -0.118952 -0.0747239 -0.0248857 0.00481157 0.0282405 0.0550973 0.0939439 0.149714 0.142295 0.0825916 0.0633379 0.0481575 0.0390138 0.03265 0.026767 0.0237725 0.020019 0.0161391 0.0162111 0.015194 0.0151674 0.0148433 0.0145866 0.0140239 0.013098 0.0115439 0.00915211 0.00509177 -0.00926215 -0.0279222 -0.0596591 -0.12192 -0.20248 -0.137585 -0.0468715 -0.00704646 0.0357213 0.0734039 0.147621 0.237472 0.20247 0.11985 0.0822562 0.0594962 0.0476104 0.0394984 0.035116 0.0291697 0.0201863 0.0163453 0.0150804 0.0140277 0.0141961 0.0140935 0.0140223 0.0135017 0.0124243 0.0104094 0.00695915 0.000940642 0.00281458 -0.00622327 -0.0140884 -0.0434134 -0.0557917 -0.0188579 -0.010152 0.01359 0.0218694 0.0451105 0.0503657 0.0965581 0.105593 0.0660452 0.0580065 0.0483574 0.0439482 0.0395528 0.0347712 0.0280573 0.0184671 0.0135859 0.0128248 0.0121796 0.0131178 0.0135166 0.0139569 0.0138765 0.0133535 0.0121752 0.0102938 0.0070164 0.0107452 0.0102575 0.0155751 0.0230813 0.054183 0.04964 0.0200935 0.0212265 0.017971 0.0212745 -0.0023412 -0.0150934 0.0151491 0.0275711 0.0383454 0.0412639 0.0430248 0.0430356 0.036182 0.0265914 0.0140691 0.0074979 0.00909809 0.00944802 0.0119508 0.0130871 0.0142092 0.0145763 0.0145189 0.0139544 0.01302 0.0117068 0.0189338 0.0237508 0.0315188 0.0580291 0.0761494 0.0509447 0.0302773 0.0244703 0.0161244 0.0110739 -0.00219322 -0.0350944 -0.0245965 0.0105057 0.0243336 0.0354494 0.0436571 0.0487004 0.0384998 0.0252657 0.00677951 -0.00231733 0.00412293 0.00599463 0.0108695 0.0129243 0.0149144 0.0158038 0.0163237 0.0165222 0.0167261 0.017352 0.0229588 0.0280872 0.0352477 0.0545821 0.065862 0.0487521 0.0323175 0.0247087 0.0156292 0.0087882 -0.0034506 -0.023453 -0.0165512 0.00733522 0.0203131 0.0348062 0.0503423 0.0684739 0.0515205 0.0236596 -0.0118042 -0.0254277 -0.00349298 0.00223569 0.01105 0.0139944 0.016626 0.0176545 0.0183586 0.0188212 0.0194491 0.0206941 0.0249268 0.0285201 0.0330813 0.0410924 0.0451161 0.0366229 0.0278724 0.0226917 0.0154169 0.0101759 0.00218689 -0.00881181 -0.00559281 0.00680418 0.0176065 0.0340245 0.0640178 0.10379 0.0695728 0.0296526 -0.0224483 -0.052891 -0.0103053 -4.91557e-05 0.0119995 0.0155336 0.0185663 0.0196078 0.0203546 0.0208741 0.0216086 0.022866 0.0257046 0.0279848 0.0306793 0.033563 0.0345703 0.0305149 0.0253871 0.0212083 0.015564 0.0113035 0.00637654 -0.000718373 -0.00214016 0.00222368 0.00736849 0.0238907 0.0504353 0.100188 0.0765577 0.0328888 -0.0317812 -0.0602994 -0.00711072 0.00888419 0.0214076 0.0228506 0.0238554 0.0233528 0.0231023 0.0230113 0.0233494 0.0242132 0.0258471 0.0272512 0.0287588 0.0302147 0.0300819 0.027883 0.0244529 0.0198345 0.0150181 0.00939168 0.00501845 0.000997267 -0.00306599 -0.00456591 -0.0121506 -0.0154185 -0.044995 -0.0618259 -0.00975135 0.0464328 0.0480682 0.0427555 0.018928 0.026071 0.028336 0.0272697 0.0264277 0.0253164 0.0246441 0.0242887 0.0243642 0.0248816 0.0256733 0.0263632 0.0270457 0.0275337 0.0270508 0.0258476 0.0231255 0.0187881 0.0147045 0.00937801 0.00434962 -0.000878806 -0.00920468 -0.0216874 -0.0472708 -0.0905385 -0.186318 -0.279846 -0.137264 0.0419366 0.208505 0.294315 0.16553 0.103368 0.0658231 0.046996 0.0362829 0.0306232 0.0275095 0.0259321 0.0252849 0.0252633 0.0252105 0.0255157 0.0257421 0.0257589 0.0250665 0.0237717 0.0216018 0.0185086 0.0154319 0.0117663 0.00817363 0.00467734 -0.000261999 -0.00573691 -0.0187648 -0.0340044 -0.0864921 -0.126439 -0.0552772 -0.00783752 0.13052 0.204443 0.114756 0.0759821 0.0494317 0.0387843 0.032137 0.0287785 0.0267415 0.0256589 0.0251492 0.025047 0.0246603 0.0247224 0.0246851 0.0244549 0.0237449 0.0226361 0.0209165 0.0185657 0.0161792 0.0134295 0.0107987 0.00840634 0.00588579 0.00441111 0.00334327 0.0115261 0.0209197 0.0461493 0.029723 -0.0113801 -0.0187279 0.0136763 0.0205662 0.0340888 0.0333511 0.0319023 0.029272 0.0274627 0.0260968 0.0252737 0.0248273 0.0246602 0.0240455 0.0240213 0.02388 0.0235607 0.0229014 0.0219379 0.0206079 0.018934 0.0172549 0.0155084 0.0140798 0.0131538 0.0131974 0.0145612 0.0202769 0.0294709 0.0618799 0.0803822 0.0389468 0.00435946 -0.0426857 -0.0465102 -0.00188193 0.0145303 0.0217044 0.0242215 0.0247109 0.0246934 0.024442 0.0242334 0.0241023 0.0240534 0.0234692 0.0234293 0.023266 0.0229437 0.0223782 0.0215957 0.0205775 0.0193644 0.018182 0.0170596 0.0163096 0.016098 0.0170168 0.0191494 0.0251836 0.0334459 0.0555557 0.0716179 0.0443442 0.00934003 -0.0243678 -0.0313095 -0.00335963 0.00889536 0.0164748 0.0201498 0.0219024 0.0227408 0.0231042 0.0232806 0.0233789 0.0234433 0.0229671 0.0229584 0.0228223 0.0225414 0.022077 0.0214513 0.0206795 0.0198141 0.0190114 0.0183469 0.0180633 0.0182939 0.019528 0.0216195 0.0262668 0.0312756 0.0415471 0.0461899 0.0340533 0.0136605 -0.00772982 -0.00943267 0.00208754 0.00901508 0.0145631 0.0178973 0.0199565 0.0211949 0.021938 0.0223989 0.0226926 0.0228764 0.0225736 0.0226136 0.0225256 0.0223033 0.0219333 0.0214374 0.020843 0.0202048 0.019637 0.019223 0.019138 0.019478 0.0205669 0.0222321 0.0253847 0.0284733 0.0332905 0.0345378 0.0277778 0.015422 0.00317898 0.00198379 0.00660274 0.0106445 0.0143884 0.0170551 0.0189496 0.0202423 0.0211235 0.0217274 0.0221424 0.0224175 0.0223021 0.0223962 0.0223634 0.0222015 0.0219098 0.0215082 0.0210303 0.0205287 0.0200909 0.0197978 0.0197728 0.0200841 0.02092 0.0221217 0.0241011 0.0258054 0.0278449 0.0275497 0.023277 0.0167354 0.0102051 0.00870942 0.0103775 0.012571 0.0149573 0.0169346 0.0185111 0.0197043 0.0205969 0.0212582 0.0217433 0.0220858 0.0221563 0.0223053 0.0223282 0.0222218 0.0219891 0.0216463 0.0212287 0.0207855 0.0203871 0.0201109 0.0200432 0.0202335 0.0207832 0.0215686 0.0227428 0.0236585 0.0244754 0.0238789 0.0212465 0.0173853 0.0136452 0.012482 0.0130053 0.01422 0.0157383 0.0171721 0.0184294 0.0194683 0.0203079 0.0209744 0.0214947 0.021886 0.0221334 0.0223398 0.0224194 0.0223626 0.0221707 0.0218521 0.0214448 0.0209944 0.0205608 0.0202279 0.0200579 0.0200921 0.0203879 0.0208524 0.0215128 0.0219741 0.0222327 0.0216389 0.0199892 0.0177585 0.0156205 0.0147551 0.0148547 0.0155314 0.0165094 0.017547 0.0185374 0.0194226 0.0201896 0.0208394 0.0213785 0.0218105 0.022228 0.0225003 0.0226427 0.0226339 0.0224683 0.0221409 0.0216971 0.0211788 0.0206413 0.0201908 0.019873 0.0197309 0.0198123 0.0200455 0.020403 0.0206399 0.0207016 0.0202591 0.0192571 0.0179423 0.0167006 0.0161268 0.0161101 0.0165177 0.017176 0.0179436 0.0187316 0.019487 0.0201855 0.0208156 0.0213715 0.0218463 0.0224331 0.0227898 0.0230112 0.0230577 0.0229119 0.0225439 0.02202 0.0213708 0.0206495 0.0200235 0.0195187 0.0191837 0.0190903 0.0191738 0.0193784 0.0195372 0.0195779 0.0193187 0.0187597 0.018021 0.0173282 0.0169871 0.016967 0.0172448 0.0177147 0.0183034 0.0189454 0.0196014 0.0202466 0.0208659 0.0214471 0.0219766 0.0227415 0.0232161 0.0235484 0.023673 0.0235481 0.0231029 0.0224495 0.0215988 0.0206066 0.0197433 0.0189984 0.0184356 0.0181995 0.0182105 0.0183789 0.0185699 0.0186956 0.0186308 0.0184043 0.0180401 0.0176961 0.0175418 0.0175535 0.017775 0.0181308 0.0186011 0.0191389 0.0197225 0.0203321 0.020955 0.0215774 0.022183 
        </DataArray>
        <DataArray Name="vy" NumberOfComponents="1" type="Float32" format="ascii">
0.00976978 0.0102955 0.0110635 0.012009 0.0131338 0.0141978 0.0150195 0.0156927 0.0157855 0.0154243 0.0148047 0.0137508 0.0124026 0.0111539 0.00997784 0.00899661 0.00820192 0.00761887 0.00722958 0.00719575 0.00723904 0.00759786 0.00792495 0.00830542 0.00859809 0.00882439 0.00896602 0.00904671 0.0090926 0.00914107 0.00923702 0.00942698 0.0090047 0.00961044 0.0105961 0.0118431 0.0134771 0.0149525 0.0161244 0.0172779 0.0173433 0.0167044 0.0158921 0.0144663 0.0125347 0.0109891 0.00960563 0.00860943 0.00787325 0.00741853 0.00709003 0.00721471 0.00718756 0.00758024 0.00780171 0.00811027 0.00830209 0.00844225 0.00849976 0.00850271 0.00847432 0.00845338 0.0084917 0.00864591 0.00798024 0.00861253 0.00984554 0.011465 0.0139423 0.0159728 0.0176877 0.0193151 0.0193652 0.0184643 0.0175404 0.0155738 0.0125469 0.0105829 0.00890691 0.00792421 0.0072945 0.00703389 0.00678265 0.00719409 0.00698249 0.00749566 0.00764196 0.00793478 0.00805024 0.00811432 0.00807849 0.00798047 0.0078413 0.00770173 0.00762208 0.00767013 0.00661539 0.00716904 0.00864967 0.0106888 0.0145494 0.0170306 0.019438 0.0227662 0.0224934 0.020634 0.0196404 0.0170673 0.0121946 0.00977086 0.00776573 0.00688509 0.00642883 0.00631748 0.00607339 0.00694303 0.00665009 0.00753429 0.00762916 0.00791695 0.00793321 0.00789446 0.00773458 0.00749994 0.0072052 0.00688801 0.00661369 0.00645798 0.00467337 0.00487082 0.0064218 0.00883041 0.0153087 0.019034 0.0231356 0.0267643 0.0260424 0.0238302 0.0236833 0.0199422 0.0108517 0.00786907 0.00560352 0.00514289 0.00519169 0.00561672 0.00550764 0.00732861 0.00609374 0.00734116 0.00747214 0.00783761 0.00782463 0.00771393 0.00743944 0.00705445 0.0065674 0.00600481 0.00542499 0.0048975 0.00235476 0.00194895 0.00329048 0.00638415 0.0176557 0.0221817 0.027001 0.030072 0.0299425 0.02876 0.0285203 0.0234378 0.00793825 0.00470392 0.00266392 0.00306197 0.00385373 0.00414167 0.00379283 0.0067394 0.00552991 0.00799887 0.00808127 0.00827307 0.0080752 0.00776754 0.00731274 0.00673268 0.00601658 0.00516089 0.004196 0.0031704 -0.00121817 -0.00332898 -0.00409913 -0.00232195 0.0208159 0.0321781 0.0345939 0.036985 0.0373311 0.0371747 0.0373023 0.0311576 -0.000492361 -0.00334194 -0.00310705 -0.000661241 0.00217987 0.00405311 0.00371412 0.00973042 0.00367246 0.00661121 0.0080204 0.00833641 0.0082347 0.00782742 0.00725504 0.00650106 0.00554341 0.00432534 0.00279312 0.000910794 -0.00428446 -0.00860169 -0.0138537 -0.0157509 0.0208476 0.0445297 0.0434534 0.0430957 0.0431049 0.0447884 0.0485785 0.0436853 -0.0141252 -0.014883 -0.00930052 -0.00310214 0.00185927 0.00260466 0.00271697 0.00671497 0.000105677 0.0095674 0.0110215 0.00959563 0.00902485 0.00821712 0.00745208 0.00653038 0.0053951 0.00391777 0.0019329 -0.000706457 -0.00857175 -0.0168647 -0.0328611 -0.0422642 0.0266569 0.0709604 0.0593334 0.0532111 0.0521024 0.0563874 0.0697559 0.0601575 -0.0341977 -0.0347995 -0.0189882 -0.00971941 -0.00302752 0.00276141 0.00660106 0.00513112 0.00305314 0.0132575 0.0132008 0.0109139 0.00981525 0.00871135 0.00778668 0.00676227 0.00550766 0.0038023 0.00126887 -0.00243714 -0.0072643 -0.0176944 -0.0386232 -0.0614672 0.00781439 0.082082 0.068897 0.0516221 0.0491474 0.0585935 0.0808961 0.0670215 -0.0526888 -0.0506368 -0.0238864 -0.0108944 -0.00253657 0.00702302 0.0132157 0.00945617 0.00802647 0.0118149 0.0114319 0.0106197 0.00976529 0.00891132 0.00811869 0.0072689 0.00623498 0.00480695 0.00258592 -0.00093066 -0.00245461 -0.0124331 -0.0298662 -0.0533101 -0.0050113 0.0845651 0.0687956 0.0444869 0.0423695 0.0582624 0.0843436 0.0495494 -0.0425227 -0.0434436 -0.0191565 -0.00417036 0.00444133 0.0113271 0.0172755 0.00880617 0.0106318 0.0130387 0.0120033 0.0110604 0.0100999 0.00925868 0.00858964 0.0079888 0.00734243 0.00645171 0.0050069 0.00235682 0.0115149 0.0143343 0.0195749 0.0266775 0.00981379 -0.0157986 -0.0101867 -0.0021643 -0.00152931 -0.00838586 -0.0141546 0.0121847 0.0251571 0.0206299 0.0150896 0.0135232 0.0146193 0.0183216 0.0226649 0.0148611 0.0164411 0.015019 0.0133664 0.0115184 0.01035 0.00946817 0.00902361 0.00883846 0.00887643 0.00909526 0.0095125 0.0102555 0.024399 0.0370524 0.060066 0.0870296 0.0189349 -0.0793662 -0.0646931 -0.0382241 -0.0358455 -0.056756 -0.0817159 -0.010787 0.0807767 0.0684486 0.0415725 0.0282347 0.0236011 0.0237716 0.0273181 0.0239486 0.0235851 0.0175357 0.0147307 0.0115166 0.0101578 0.00926907 0.00915137 0.00945588 0.0102255 0.0115485 0.0137623 0.0175764 0.0254639 0.0351382 0.0552901 0.071809 -0.0117624 -0.0605963 -0.04305 -0.0332592 -0.0324389 -0.0386157 -0.0620566 -0.0449513 0.0676515 0.0612527 0.0377906 0.027876 0.0246816 0.0275197 0.033749 0.0314482 0.0311805 0.0195816 0.0155797 0.0108165 0.0094079 0.00856536 0.00881435 0.00952321 0.0107419 0.0124947 0.0150927 0.0189394 0.0245404 0.0314178 0.0423485 0.0488556 -0.00606562 -0.0427249 -0.036782 -0.0332647 -0.0331503 -0.0355834 -0.0448396 -0.0279302 0.0414055 0.0397274 0.0279858 0.0218312 0.0215669 0.0290945 0.0463093 0.0455791 0.0459196 0.0202498 0.0139291 0.00745196 0.00672047 0.00655576 0.00762364 0.00897385 0.0107009 0.0128127 0.0155652 0.0192354 0.020093 0.0231747 0.0248947 0.024757 -0.00263203 -0.0184623 -0.019643 -0.0208571 -0.021391 -0.0215732 -0.0223053 -0.0171316 0.0170269 0.0167181 0.0136246 0.0100414 0.0122048 0.031481 0.0580566 0.0584084 0.0611622 0.0186815 0.00997068 0.00345456 0.00381931 0.00459967 0.00641792 0.00825534 0.0102217 0.0122869 0.0145743 0.0171712 0.0170836 0.01821 0.0170048 0.0141043 0.00204368 -0.00802101 -0.0122921 -0.0151095 -0.0158859 -0.0151891 -0.0130773 -0.0103436 0.00462105 0.00325497 -0.00110192 -0.00987084 -0.011738 0.0223329 0.103905 0.106559 0.109508 0.00136484 -0.0114025 -0.0108142 -0.00511285 -0.00039975 0.00368426 0.00681963 0.00937508 0.0115614 0.0135643 0.0154615 0.0147683 0.0148995 0.0135074 0.0106822 0.00382143 -0.00180573 -0.00646825 -0.00937996 -0.00993831 -0.00938207 -0.00504774 -0.00534863 -0.000117504 -0.00346217 -0.0117367 -0.0337037 -0.0552412 0.0207561 0.131849 0.126462 0.148708 0.000348369 -0.0330578 -0.017472 -0.00826035 -0.000962616 0.00362174 0.00692987 0.00933673 0.0112223 0.0127524 0.0139785 0.0132936 0.0129704 0.0116731 0.00934611 0.00571066 0.00159174 -0.00261266 -0.00502885 -0.00539788 -0.00530654 -0.00142626 -0.00115102 -0.00138521 -0.0080688 -0.0242206 -0.0573161 -0.0929831 0.00110614 0.180187 0.208651 0.212042 -0.0294102 -0.0894368 -0.0453842 -0.0211374 -0.00556803 0.00209616 0.0066689 0.00932514 0.0110668 0.0122437 0.0130017 0.01248 0.0119321 0.0107442 0.00891454 0.0062826 0.00381922 0.00134663 0.000138546 0.000193669 0.00072721 0.00317583 0.0047213 0.00697052 0.0075304 0.0055999 -0.00056068 -0.00861573 -0.000981786 0.0264236 0.0679657 0.152386 0.0570905 -0.0220145 -0.0192398 -0.00504944 0.00381714 0.00746684 0.00968086 0.0109427 0.0117831 0.0123144 0.0125687 0.0121521 0.0115135 0.0105114 0.00915317 0.00743271 0.00584022 0.00416234 0.00357719 0.00395574 0.00504999 0.00802141 0.0115223 0.0172485 0.0263612 0.0423522 0.0716976 0.0874529 -0.026643 -0.161095 -0.148161 -0.0590635 0.0492364 0.0822281 0.0526141 0.0312659 0.0212619 0.0165417 0.0143898 0.0134125 0.012984 0.0127553 0.0125265 0.0120406 0.0113919 0.0105461 0.00952972 0.00834793 0.00736417 0.00651263 0.00636735 0.00693862 0.00819111 0.0106865 0.0141066 0.0191939 0.0276409 0.0396395 0.0663612 0.0833884 -0.0240942 -0.107721 -0.112811 -0.0794814 0.0770224 0.089488 0.0514739 0.033318 0.0233775 0.0185582 0.0159071 0.0144608 0.0136041 0.0130343 0.0125569 0.0120649 0.0114557 0.0107719 0.0100366 0.00926081 0.00866988 0.00822079 0.00833115 0.00901904 0.0103333 0.012647 0.0158379 0.0203265 0.0269457 0.0350045 0.0487907 0.0526312 -0.0166491 -0.0941714 -0.0951597 -0.069833 0.0359629 0.0561163 0.0412414 0.0317348 0.0244387 0.0199905 0.0170856 0.0152743 0.0140951 0.0132819 0.0126469 0.0120827 0.0115549 0.0110198 0.0104972 0.0100005 0.00967274 0.00951398 0.00974431 0.0103941 0.011501 0.0132335 0.0154859 0.0183779 0.0218258 0.0254484 0.0278318 0.026587 -0.00523794 -0.0409687 -0.0494855 -0.0302178 0.0219325 0.0303565 0.0284414 0.0249267 0.0213036 0.0185941 0.0165474 0.0150944 0.0140431 0.0132597 0.0126333 0.0120722 0.0116489 0.0112564 0.0109085 0.010616 0.0104636 0.0104577 0.0107292 0.0112981 0.0121841 0.0134614 0.0150121 0.0168416 0.0185626 0.0199291 0.0187748 0.014901 -0.00370375 -0.0225542 -0.0304936 -0.0157452 0.0107215 0.0184873 0.0208014 0.0202447 0.0187139 0.0171495 0.0157615 0.0146512 0.013781 0.013098 0.0125444 0.0120028 0.0116981 0.0114406 0.0112392 0.0111007 0.011072 0.0111577 0.0114228 0.0118722 0.0125025 0.0133233 0.0142122 0.0151139 0.0156043 0.0156161 0.0134374 0.010141 -0.000119733 -0.00847895 -0.0114395 -0.00526176 0.00740933 0.0128314 0.0157055 0.0163874 0.016099 0.0154248 0.0146535 0.0139341 0.0133124 0.0127934 0.0123631 0.0118758 0.011695 0.0115675 0.0114977 0.0114861 0.0115535 0.011695 0.0119392 0.0122758 0.0126893 0.0131638 0.0135945 0.0139194 0.0138109 0.0132562 0.0111711 0.00843961 0.00238799 -0.00223157 -0.00417189 -0.000245561 0.00633794 0.0102418 0.0127463 0.0138172 0.014096 0.0139342 0.0135757 0.0131602 0.0127601 0.0124073 0.0121124 0.0116928 0.0116364 0.0116364 0.0116924 0.0117975 0.0119533 0.0121413 0.0123678 0.0126071 0.0128378 0.0130372 0.0131229 0.0130453 0.0125908 0.0117759 0.0100029 0.00794346 0.00439882 0.00202624 0.00110634 0.00305539 0.00652125 0.00909616 0.0109987 0.0120562 0.0125508 0.0126686 0.0125772 0.0123869 0.0121699 0.0119681 0.0118051 0.0114565 0.0115226 0.0116515 0.0118371 0.0120635 0.0123163 0.0125581 0.0127847 0.0129514 0.0130389 0.0130313 0.0128687 0.0125288 0.0118978 0.0110056 0.00955835 0.00798668 0.00578672 0.00436502 0.0037973 0.00492336 0.00685165 0.00856729 0.00995651 0.0108649 0.0113943 0.0116364 0.0116965 0.0116551 0.0115741 0.0114963 0.0114509 0.0111632 0.0113496 0.0116132 0.0119415 0.0123084 0.0126826 0.0130002 0.0132578 0.0133766 0.0133465 0.0131722 0.0128073 0.0122638 0.0115097 0.0105851 0.00937538 0.00814811 0.00672108 0.00582731 0.00549143 0.00609018 0.00719881 0.00832193 0.00931104 0.0100354 0.0105163 0.0107918 0.0109243 0.0109706 0.0109813 0.0109971 0.0110499 0.0108021 0.011107 0.0115178 0.0120127 0.012557 0.0130925 0.0135191 0.0138449 0.0139391 0.0138103 0.0134917 0.0129357 0.0121964 0.011323 0.0103615 0.00929895 0.00829147 0.0072931 0.00666294 0.00644025 0.00676075 0.00743558 0.00817572 0.00887894 0.009433 0.00983365 0.0100904 0.010241 0.0103259 0.0103875 0.0104653 0.0105935 0.0103486 0.0107675 0.011343 0.0120382 0.0128207 0.0135809 0.0141709 0.0146433 0.0147278 0.0144819 0.0140142 0.0132415 0.0122596 0.0112322 0.010194 0.00920008 0.00832486 0.00757643 0.00709491 0.00696047 0.00711553 0.00756578 0.00805576 0.00856187 0.00897148 0.00928364 0.00949187 0.00962214 0.00970542 0.00977973 0.00988551 0.0100617 
        </DataArray>
        <DataArray Name="vz" NumberOfComponents="1" type="Float32" format="ascii">
0 0 0 0 0 0 0 0 0 0 0 0 0 0 0 0 0 0 0 0 0 0 0 0 0 0 0 0 0 0 0 0 0 0 0 0 0 0 0 0 0 0 0 0 0 0 0 0 0 0 0 0 0 0 0 0 0 0 0 0 0 0 0 0 0 0 0 0 0 0 0 0 0 0 0 0 0 0 0 0 0 0 0 0 0 0 0 0 0 0 0 0 0 0 0 0 0 0 0 0 0 0 0 0 0 0 0 0 0 0 0 0 0 0 0 0 0 0 0 0 0 0 0 0 0 0 0 0 0 0 0 0 0 0 0 0 0 0 0 0 0 0 0 0 0 0 0 0 0 0 0 0 0 0 0 0 0 0 0 0 0 0 0 0 0 0 0 0 0 0 0 0 0 0 0 0 0 0 0 0 0 0 0 0 0 0 0 0 0 0 0 0 0 0 0 0 0 0 0 0 0 0 0 0 0 0 0 0 0 0 0 0 0 0 0 0 0 0 0 0 0 0 0 0 0 0 0 0 0 0 0 0 0 0 0 0 0 0 0 0 0 0 0 0 0 0 0 0 0 0 0 0 0 0 0 0 0 0 0 0 0 0 0 0 0 0 0 0 0 0 0 0 0 0 0 0 0 0 0 0 0 0 0 0 0 0 0 0 0 0 0 0 0 0 0 0 0 0 0 0 0 0 0 0 0 0 0 0 0 0 0 0 0 0 0 0 0 0 0 0 0 0 0 0 0 0 0 0 0 0 0 0 0 0 0 0 0 0 0 0 0 0 0 0 0 0 0 0 0 0 0 0 0 0 0 0 0 0 0 0 0 0 0 0 0 0 0 0 0 0 0 0 0 0 0 0 0 0 0 0 0 0 0 0 0 0 0 0 0 0 0 0 0 0 0 0 0 0 0 0 0 0 0 0 0 0 0 0 0 0 0 0 0 0 0 0 0 0 0 0 0 0 0 0 0 0 0 0 0 0 0 0 0 0 0 0 0 0 0 0 0 0 0 0 0 0 0 0 0 0 0 0 0 0 0 0 0 0 0 0 0 0 0 0 0 0 0 0 0 0 0 0 0 0 0 0 0 0 0 0 0 0 0 0 0 0 0 0 0 0 0 0 0 0 0 0 0 0 0 0 0 0 0 0 0 0 0 0 0 0 0 0 0 0 0 0 0 0 0 0 0 0 0 0 0 0 0 0 0 0 0 0 0 0 0 0 0 0 0 0 0 0 0 0 0 0 0 0 0 0 0 0 0 0 0 0 0 0 0 0 0 0 0 0 0 0 0 0 0 0 0 0 0 0 0 0 0 0 0 0 0 0 0 0 0 0 0 0 0 0 0 0 0 0 0 0 0 0 0 0 0 0 0 0 0 0 0 0 0 0 0 0 0 0 0 0 0 0 0 0 0 0 0 0 0 0 0 0 0 0 0 0 0 0 0 0 0 0 0 0 0 0 0 0 0 0 0 0 0 0 0 0 0 0 0 0 0 0 0 0 0 0 0 0 0 0 0 0 0 0 0 0 0 0 0 0 0 0 0 0 0 0 0 0 0 0 0 0 0 0 0 0 0 0 0 0 0 0 0 0 0 0 0 0 0 0 0 0 0 0 0 0 0 0 0 0 0 0 0 0 0 0 0 0 0 0 0 0 0 0 0 0 0 0 0 0 0 0 0 0 0 0 0 0 0 0 0 0 0 0 0 0 0 0 0 0 0 0 0 0 0 0 0 0 0 0 0 0 0 0 0 0 0 0 0 0 0 0 0 0 0 0 0 0 0 0 0 0 0 0 0 0 0 0 0 0 0 0 0 0 0 0 0 0 0 0 0 0 0 0 0 0 0 0 0 0 0 0 0 0 0 0 0 0 0 0 0 0 0 0 0 0 0 0 0 0 0 0 0 0 0 0 0 0 0 0 0 0 0 0 0 0 0 0 0 0 0 0 0 0 0 0 0 0 0 0 0 0 0 0 0 0 0 0 0 0 0 0 0 0 0 0 0 0 0 0 0 0 0 0 0 0 0 0 0 0 0 0 0 0 0 0 0 0 0 0 0 0 0 0 0 0 0 0 0 0 0 0 0 0 0 0 0 0 0 0 0 0 0 0 0 0 0 0 0 0 0 0 0 0 0 0 0 0 0 0 0 0 0 0 0 0 0 0 0 0 0 0 0 0 0 0 0 0 0 0 0 0 0 0 0 0 0 0 0 0 0 0 0 0 0 0 0 0 0 0 0 0 0 0 0 0 0 0 0 0 0 0 0 0 0 0 0 0 0 0 0 0 0 0 0 0 0 0 0 0 0 0 0 0 0 0 0 0 
        </DataArray>
        <DataArray Name="p" NumberOfComponents="1" type="Float32" format="ascii">