<?xml version="1.0"?>
<VTKFile type="StructuredGrid" version="0.1" byte_order="LittleEndian">
  <StructuredGrid WholeExtent="0 32 0 32 0 1">
    <Piece Extent="0 32 0 32 0 1">
      <PointData>
      </PointData>
      <CellData>
        <DataArray Name="vx" NumberOfComponents="1" type="Float32" format="ascii">
0.0178951 0.0174847 0.0170506 0.0165765 0.0161725 0.0158185 0.0157685 0.0161277 0.0170144 0.0189081 0.021138 0.0229984 0.0241733 0.0246404 0.0246909 0.0244662 0.0240133 0.0235383 0.0229466 0.0223257 0.0217025 0.021106 0.0206039 0.0201294 0.0198192 0.0195485 0.019361 0.0191876 0.0190068 0.0188035 0.0185506 0.0182493 0.0178415 0.0173254 0.0167376 0.0159918 0.015281 0.0144672 0.0141156 0.0142297 0.0151755 0.0180825 0.0216006 0.024431 0.0259146 0.0261799 0.0259116 0.0252845 0.024499 0.0238158 0.0230888 0.0224345 0.021837 0.0212971 0.0207925 0.0202871 0.0199339 0.019633 0.0194169 0.0192315 0.0190426 0.0188348 0.0185736 0.0182449 0.0178444 0.0171855 0.0163671 0.0151896 0.0139445 0.0122948 0.0112874 0.0107678 0.0117387 0.0166161 0.0227101 0.027332 0.0291116 0.028837 0.0279475 0.0266061 0.0252664 0.0242412 0.0232976 0.0225399 0.0219225 0.0214342 0.0208787 0.0203046 0.0199293 0.0196301 0.0194331 0.0192748 0.0191093 0.0189188 0.0186618 0.0183081 0.0179216 0.0170396 0.0158113 0.0138316 0.0116276 0.00846315 0.00677747 0.00506646 0.00558471 0.0140409 0.0247442 0.0327411 0.0349393 0.033624 0.0316131 0.0288569 0.0264194 0.0247099 0.0233707 0.0224452 0.0218879 0.021604 0.0210286 0.0203438 0.0199211 0.0196075 0.0194322 0.0193138 0.0191929 0.0190458 0.0188192 0.0184564 0.0181175 0.0169303 0.0150731 0.0119495 0.00827826 0.00313253 0.000272579 -0.00348433 -0.00255543 0.0117175 0.0282398 0.0411453 0.0434851 0.0403988 0.0370185 0.0322496 0.0282433 0.0254623 0.0235314 0.0221777 0.0216437 0.0217895 0.0210592 0.0201138 0.0196823 0.0194337 0.0193772 0.0193699 0.019345 0.0192777 0.0191059 0.0187471 0.0184289 0.016821 0.0140239 0.00935702 0.00417289 -0.00231478 -0.000219811 -0.00362147 -0.00264939 0.0139818 0.0282945 0.0441557 0.0477803 0.0452725 0.043349 0.0365493 0.0303724 0.0259547 0.0230795 0.0211159 0.0208646 0.0219203 0.0212028 0.0199823 0.019476 0.0192522 0.0192914 0.019398 0.0194923 0.0195466 0.019479 0.0191676 0.0191262 0.0172711 0.0139143 0.00904894 0.00508699 0.00412887 0.012511 0.0121653 0.0103921 0.0167564 0.0233335 0.0316174 0.0315756 0.0338767 0.0410857 0.0374946 0.0314926 0.026039 0.0222918 0.018192 0.0179611 0.0215068 0.0206348 0.0188921 0.0187161 0.0188261 0.0191762 0.0195131 0.0197908 0.0200112 0.0200925 0.0198927 0.0204354 0.0190442 0.016092 0.0135576 0.0120187 0.0166469 0.014245 0.0187581 0.0325244 0.0274428 0.018726 0.0150345 0.0207166 0.0256952 0.029198 0.031577 0.027816 0.0228537 0.018621 0.0136682 0.0136494 0.018217 0.0186741 0.0181082 0.0182525 0.0185031 0.0190096 0.0195221 0.0200036 0.0204608 0.0208057 0.0209288 0.0227316 0.0225204 0.0216029 0.0216095 0.0227655 0.0197889 0.0186681 0.0329008 0.0415125 0.0313071 0.0184273 0.00815336 0.0149185 0.0232119 0.0194619 0.021013 0.020629 0.0193254 0.0176571 0.020277 0.0189671 0.0136354 0.0144417 0.0160716 0.0172446 0.0182661 0.0190774 0.0198106 0.0204812 0.021174 0.0218513 0.0224555 0.0257555 0.0279318 0.0302557 0.0348191 0.037395 0.0408928 0.0458433 0.0487373 0.0443229 0.030586 0.0168647 0.00430814 0.00141772 0.00394716 0.00239409 0.0053189 0.00980452 0.0132127 0.0154403 0.019511 0.0189801 0.0148864 0.014444 0.0145988 0.0160213 0.0174685 0.0186788 0.0196544 0.0206269 0.0216629 0.0228146 0.0242081 0.0289201 0.0334965 0.0404846 0.0483161 0.0581607 0.0647115 0.0606796 0.0539169 0.0434172 0.0292086 0.01505 0.00126676 -0.00894192 -0.0144793 -0.0169269 -0.0107464 -0.000821311 0.0072084 0.0141545 0.0180159 0.0181054 0.0187679 0.0189752 0.0170796 0.0176638 0.0184755 0.0192041 0.020026 0.0210411 0.02225 0.0237908 0.0258535 0.0310204 0.0375724 0.0474649 0.0584074 0.0697 0.0741815 0.066717 0.0553482 0.0417714 0.0276609 0.0136653 0.000114881 -0.0123237 -0.0186211 -0.020428 -0.0157179 -0.00669207 0.0027625 0.0108616 0.0167705 0.0181975 0.0143631 0.0151231 0.0174588 0.0180516 0.0184033 0.018967 0.0197863 0.0209462 0.0223657 0.0242371 0.0268723 0.0307553 0.0371573 0.0466133 0.0565907 0.0629632 0.0669957 0.0636126 0.0527067 0.0395499 0.025859 0.0120126 -0.00142051 -0.0139006 -0.018462 -0.0186648 -0.015534 -0.00820928 0.000542244 0.00765512 0.0111844 0.0139366 0.0135882 0.0145048 0.0170064 0.0175677 0.0179425 0.0186069 0.0195138 0.0207395 0.0221901 0.0240647 0.0266667 0.0287365 0.0333976 0.0405873 0.0472142 0.0524454 0.0582945 0.0567057 0.0492787 0.0381433 0.0244493 0.0104359 -0.00324796 -0.0133071 -0.0158719 -0.0139656 -0.00937381 -0.00319778 0.00438153 0.00970152 0.0117277 0.0138898 0.0153378 0.0158132 0.0168168 0.0168472 0.0172496 0.0179916 0.0189608 0.0202111 0.0215952 0.0233028 0.0254664 0.0249696 0.0272334 0.0300797 0.0348002 0.0381799 0.0437388 0.046397 0.0438315 0.0365735 0.0228205 0.00884849 -0.00496173 -0.0114145 -0.00997399 -0.00579448 0.000198101 0.00586654 0.0113009 0.0146706 0.0162963 0.0170082 0.016371 0.0155637 0.0159446 0.0159662 0.0165623 0.0174482 0.0184586 0.0196452 0.0208195 0.022054 0.0234285 0.0216867 0.0214835 0.0209541 0.0220567 0.0239084 0.0214662 0.0221841 0.0318649 0.0332899 0.0214741 0.00815662 -0.00363648 0.000963486 0.0101679 0.00960204 0.0135078 0.0172681 0.019146 0.020022 0.0211777 0.0202329 0.0168317 0.0152205 0.0159447 0.0159031 0.0165441 0.0173737 0.0182467 0.0192553 0.020128 0.0209261 0.0214847 0.0189112 0.0170386 0.0137539 0.0116775 0.0117988 0.0169929 0.0149396 0.0188096 0.0265872 0.0184143 0.00979886 0.00549649 0.0203416 0.0260245 0.0221994 0.02727 0.0263017 0.0249237 0.0239745 0.02769 0.0258162 0.0171396 0.014061 0.0154104 0.0156364 0.0165499 0.0175263 0.018339 0.0191553 0.0196862 0.0199837 0.0198413 0.0175474 0.0148994 0.0103542 0.00496585 0.00083711 0.00235709 0.0132931 0.01409 0.0106822 0.0133473 0.0151954 0.0255855 0.0256154 0.0225887 0.0321861 0.033401 0.0307353 0.0276121 0.0308723 0.0362509 0.028974 0.0106638 0.00725219 0.0156218 0.0173454 0.0182997 0.0189418 0.0193024 0.0196776 0.0197483 0.0195944 0.0189726 0.017201 0.0147207 0.0106445 0.00501208 -0.00134494 -0.00665021 -0.00328541 0.00145079 0.0066389 0.0177933 0.0268124 0.0375625 0.038346 0.0383006 0.0420332 0.0374154 0.0325767 0.0302906 0.0357122 0.0257645 0.0147176 0.0026329 -0.00437216 0.00851553 0.0155242 0.0187302 0.0199359 0.020304 0.0204093 0.0201425 0.0196202 0.0187225 0.0173815 0.0153323 0.0122857 0.00818787 0.0030818 -0.00226971 -0.00507221 -0.00468786 0.00257526 0.0187367 0.0348523 0.0457944 0.0469272 0.0433284 0.0397645 0.034307 0.0293487 0.02766 0.0170738 0.00767678 0.0155774 0.0345861 0.0270456 0.0119558 0.0209116 0.0228142 0.0234456 0.0227456 0.0219841 0.0210698 0.0200569 0.0188968 0.0177419 0.0160879 0.0139333 0.0112405 0.00803814 0.00461825 0.00256096 0.00226643 0.00644272 0.0181697 0.0314903 0.0391812 0.0393382 0.0360154 0.0334949 0.0283962 0.0251968 0.0150798 0.00332967 0.00768731 0.0168006 0.0315744 0.0324666 0.0251354 0.0249676 0.0256861 0.0248457 0.0240499 0.0227876 0.0216646 0.0204082 0.0191687 0.0181431 0.0167535 0.0151828 0.0134871 0.011617 0.00983922 0.00882452 0.00912331 0.0120329 0.0188172 0.0267832 0.031492 0.0322729 0.0306449 0.0292064 0.0260175 0.0250129 0.0149938 0.00722661 0.0172053 0.028716 0.035442 0.0623003 0.0703335 0.0457491 0.0374907 0.0307049 0.0275102 0.02462 0.0227135 0.0209798 0.0195565 0.0183661 0.017245 0.0160808 0.0149662 0.0138819 0.0130351 0.0127587 0.0133985 0.0154532 0.0193519 0.0237916 0.026634 0.0274254 0.0268435 0.0258893 0.0246333 0.0233262 0.0237041 0.013914 0.0156894 0.0313396 0.0386925 0.0516287 0.0486478 0.0338882 0.0305313 0.0271887 0.0255837 0.0236517 0.0222248 0.0207851 0.0195718 0.0185494 0.0176234 0.0167308 0.015975 0.0153325 0.0149718 0.0150298 0.0157233 0.0172418 0.0196636 0.0223432 0.0242023 0.0248539 0.0247279 0.0236637 0.0232093 0.0209041 0.0272256 0.0244891 0.0216329 0.0316477 0.0434827 0.0325695 0.0197866 0.0262027 0.0262318 0.0258689 0.0246886 0.0232557 0.0219702 0.0206886 0.0195998 0.018573 0.0178584 0.0171885 0.0166646 0.0162763 0.0161555 0.0163616 0.0170246 0.0181868 0.0198302 0.0215893 0.0229516 0.0235798 0.0238101 0.023344 0.0232272 0.0231626 0.0263187 0.0384768 0.0362433 0.0227267 0.0178828 0.0118102 0.0167664 0.0234322 0.0235217 0.0235039 0.0228075 0.021965 0.0211095 0.0201995 0.0193858 0.0185727 0.0180136 0.0175053 0.0171387 0.0169092 0.0169175 0.0171856 0.0177919 0.0187269 0.0199531 0.0212355 0.0223256 0.0229138 0.0232711 0.0229594 0.0227771 0.022378 0.0221546 0.0290049 0.0268154 0.015499 0.012792 0.0137737 0.0184001 0.021387 0.021422 0.0218017 0.0214979 0.0210548 0.0204867 0.0198327 0.0192105 0.018498 0.0180746 0.0176937 0.0174352 0.0173028 0.0173759 0.0176631 0.0182178 0.0190078 0.0200037 0.0210344 0.0219919 0.0226136 0.0231395 0.0231589 0.0232856 0.0231373 0.0226259 0.0234653 0.0212306 0.0169775 0.0166531 0.0172605 0.0184817 0.0198775 0.0199929 0.0204207 0.0203437 0.0201601 0.0198385 0.0194128 0.0189732 0.018421 0.0180815 0.0177803 0.017586 0.0175081 0.0176114 0.0179018 0.0184211 0.0191316 0.0200163 0.0209342 0.0218257 0.022471 0.0230531 0.0232197 0.0234293 0.02335 0.0230115 0.0231524 0.0216386 0.0190249 0.0181967 0.0180317 0.018359 0.0191073 0.0192844 0.0196654 0.0196947 0.0196322 0.0194357 0.0191333 0.0187969 0.0183154 0.0180281 0.0177726 0.0176072 0.0175488 0.0176542 0.0179344 0.018432 0.019109 0.0199633 0.0208609 0.0217398 0.022419 0.0230212 0.0232813 0.023529 0.0234584 0.0232002 0.0228565 0.0217474 0.0202178 0.0193849 0.0189566 0.018777 0.0190612 0.019094 0.0193023 0.0193163 0.0192738 0.0191308 0.0188971 0.0186258 0.0182106 0.0179359 0.0176866 0.0175113 0.0174361 0.0175141 0.0177709 0.0182601 0.0189476 0.0198567 0.0208325 0.0217679 0.0225041 0.0230969 0.0233756 0.0235764 0.0234667 0.0232145 0.0227961 0.0219532 0.0208698 0.0200465 0.0195396 0.0191929 0.0192096 0.0191373 0.019207 0.0191755 0.0191061 0.0189643 0.0187486 0.0184975 0.0180951 0.0178041 0.0175293 0.0173079 0.0171807 0.0171947 0.0174063 0.0178873 0.0186172 0.0196739 0.0208402 0.0219141 0.0227401 0.0233146 0.0235753 0.0236939 0.0235259 0.0232394 0.0227668 0.0220656 0.0212567 0.020537 0.0200293 0.0196048 0.0194496 0.0192803 0.0192271 0.0191332 0.0190186 0.0188575 0.0186378 0.0183842 0.017989 0.0176513 0.0173139 0.0169949 0.0167619 0.0166446 0.016768 0.0172238 0.0180271 0.0193808 0.0209205 0.0222779 0.0232541 0.0237993 0.0239916 0.0239734 0.0236935 0.0233326 0.022815 0.0221837 0.0215088 0.0208641 0.0203667 0.019916 0.019665 0.019434 0.0192968 0.0191528 0.0189973 0.0188117 0.0185759 0.0183028 
        </DataArray>
        <DataArray Name="vy" NumberOfComponents="1" type="Float32" format="ascii">
0.0132772 0.0131886 0.0129916 0.0127018 0.0121605 0.0115023 0.0103726 0.00930461 0.00781165 0.00677488 0.00664568 0.00737086 0.00852407 0.00965192 0.010506 0.0112276 0.0115658 0.0118731 0.0119585 0.0121019 0.0121896 0.0124268 0.0126289 0.0128649 0.0130141 0.0131472 0.0132232 0.0132739 0.0133056 0.013321 0.0133298 0.0133205 0.0136811 0.0136609 0.0135142 0.013265 0.0126653 0.0118961 0.0102999 0.00873369 0.00615837 0.00434315 0.00420635 0.00563956 0.00772423 0.00945456 0.0107296 0.0116742 0.012118 0.012472 0.0125994 0.012749 0.0128108 0.0129885 0.0131548 0.0132688 0.013327 0.0133728 0.0134027 0.0134408 0.0134877 0.0135426 0.0136041 0.0136591 0.0141876 0.0142984 0.0142849 0.0141755 0.0135725 0.0127421 0.0104223 0.00845644 0.00383788 0.00055372 0.000315438 0.00304353 0.00687006 0.00952948 0.0114347 0.0125996 0.0130286 0.0132912 0.013318 0.0133702 0.0133203 0.0134681 0.0136564 0.0136977 0.0136838 0.013652 0.013632 0.0136505 0.0137054 0.0137978 0.0139196 0.0140605 0.0147989 0.0151694 0.0155045 0.0157914 0.0155161 0.0147469 0.0116731 0.00840229 -0.000145601 -0.00636434 -0.00653296 -0.000911198 0.00640932 0.0104293 0.0131283 0.0143235 0.014503 0.0144829 0.0142672 0.0141912 0.0138597 0.0140308 0.0143033 0.0141963 0.0140272 0.0138568 0.0137619 0.0137594 0.0138358 0.0139888 0.0142054 0.0144822 0.0155876 0.0164092 0.0174078 0.0183843 0.0186739 0.0178023 0.0132521 0.0104659 -0.00544958 -0.0180175 -0.0183759 -0.00726849 0.006578 0.0122176 0.0163645 0.0175981 0.017141 0.0163543 0.0154643 0.0149481 0.0141002 0.0144168 0.014937 0.0147729 0.0144426 0.0141209 0.0139351 0.0138942 0.0139783 0.0141841 0.0145092 0.0149672 0.016617 0.0182625 0.0204882 0.022773 0.0242681 0.0230657 0.0180622 0.0110856 -0.0177962 -0.0352299 -0.0354407 -0.017349 0.00769524 0.0161364 0.0220365 0.023001 0.0214379 0.0193725 0.0174541 0.0163884 0.0138766 0.0146129 0.0159669 0.0155255 0.0147648 0.0141455 0.0138402 0.013786 0.0139186 0.0142252 0.0147249 0.0154771 0.0179414 0.0208011 0.0248341 0.0282366 0.0300914 0.0225893 0.013196 0.0155104 -0.022615 -0.0497753 -0.050315 -0.0268685 0.00843789 0.0135692 0.025656 0.02992 0.0276433 0.0236377 0.0198814 0.0174712 0.0131794 0.014556 0.0169197 0.0164291 0.015212 0.0142482 0.013799 0.0136901 0.0138367 0.0142114 0.0148976 0.0160244 0.0192281 0.0234696 0.0286542 0.0316799 0.0290099 0.0157061 0.0114146 0.0118149 -0.0228687 -0.048181 -0.0487355 -0.0278029 0.00725121 0.0050613 0.0213449 0.0323354 0.0333284 0.0290068 0.0251989 0.0217964 0.00891909 0.0119609 0.0184523 0.0173527 0.0149808 0.0136787 0.0131945 0.0131692 0.0134132 0.0139138 0.0148279 0.0164278 0.0199315 0.0251222 0.0306655 0.0321703 0.0283672 0.0200466 0.00973901 -0.00454247 -0.028102 -0.0379971 -0.0377847 -0.0277681 -0.00210816 0.00309029 0.0203384 0.0309855 0.0361572 0.0327656 0.0278978 0.0230815 0.00885474 0.0105925 0.0172269 0.0166281 0.0148608 0.0133519 0.0127783 0.0126769 0.01291 0.0134227 0.0144657 0.0164062 0.0190957 0.0244833 0.029226 0.0303446 0.0289216 0.0194923 -0.000217916 -0.00979593 -0.0207848 -0.0252808 -0.0257032 -0.0229066 -0.00861557 0.00222332 0.0224367 0.0302384 0.0351809 0.0320745 0.0254228 0.0198313 0.0152882 0.0150433 0.0164325 0.0142647 0.013099 0.0118983 0.0116964 0.0117694 0.0120367 0.0125189 0.013515 0.0154946 0.0163056 0.0206731 0.0239602 0.0251635 0.0222857 0.0137014 0.00115059 -0.00432793 -0.00957001 -0.0111719 -0.0119289 -0.0116528 -0.004068 0.00487853 0.0195608 0.0231239 0.0280358 0.0262401 0.0217894 0.0188723 0.0148702 0.0140329 0.0188601 0.0148915 0.0118962 0.0105765 0.0105638 0.010727 0.010925 0.0112563 0.0119691 0.0135034 0.0113664 0.0130006 0.0142307 0.0136439 0.0120148 0.0163984 0.0107869 0.0071722 0.00429946 0.00297561 0.00192047 0.00152644 0.00502375 0.0108417 0.0170501 0.0152091 0.0184923 0.0174565 0.0148841 0.0155862 0.0155868 0.0140021 0.0183358 0.0147942 0.0117327 0.0104165 0.010097 0.00990761 0.00977925 0.00972783 0.00986463 0.0103351 0.00564905 0.00433503 0.00327647 0.00234936 0.008225 0.0149443 0.0208163 0.02005 0.0182066 0.0166989 0.0153759 0.0148756 0.0140855 0.0153618 0.0148769 0.0104515 0.00841724 0.00865558 0.00805309 0.011342 0.0167629 0.0163542 0.0156129 0.0127 0.0107401 0.00975506 0.00921156 0.00877849 0.00839436 0.00800187 0.0075084 0.00680227 0.000712399 -0.00319352 -0.0052872 -0.00517614 0.00417961 0.0132802 0.0277213 0.0308155 0.0316724 0.0305941 0.0291534 0.0279408 0.0216661 0.0169542 0.0122602 0.00668261 0.000650693 0.00154254 0.00402755 0.00866906 0.0138029 0.0145936 0.0139364 0.0122959 0.0106685 0.00942395 0.00850434 0.0077329 0.00707883 0.00634512 0.00532137 0.00355771 -0.00223803 -0.00733372 -0.0105223 -0.00936514 -0.00258299 0.00767011 0.0324902 0.0381114 0.0433231 0.0442668 0.042693 0.0391525 0.0257746 0.0177687 0.00636573 0.000989727 -0.00538801 -0.00398094 0.000947861 0.00718083 0.0131223 0.0146346 0.013389 0.0118098 0.010091 0.00860613 0.00748678 0.00655177 0.00579614 0.00493612 0.00368423 0.0014594 -0.00303714 -0.00813055 -0.0125121 -0.0114556 -0.00339104 0.00643114 0.026483 0.0376185 0.0527736 0.0578965 0.0562724 0.0487 0.0252238 0.0119882 0.00122213 -0.00445596 -0.0104615 -0.00732417 -0.00103443 0.00588543 0.0140789 0.0161783 0.0142428 0.0123121 0.0100998 0.00811821 0.0066809 0.00555954 0.00474705 0.00390772 0.00271608 0.000613154 -0.00224304 -0.00675916 -0.0115859 -0.0129792 -0.005702 0.0104411 0.0253809 0.0268538 0.0540948 0.069437 0.0675126 0.0466116 0.0105983 0.0114138 0.00340884 -0.00700945 -0.0105751 -0.00661698 -0.00095897 0.00751665 0.0178847 0.0200774 0.0134354 0.0110644 0.008922 0.00695544 0.00558644 0.00456423 0.00388206 0.003238 0.00234374 0.000689797 -0.000170972 -0.00309164 -0.00694853 -0.00955142 -0.00844398 0.00297924 0.0221123 0.0272031 0.0558035 0.0736819 0.0675111 0.0392357 0.00746877 0.00901498 -0.000857902 -0.00936673 -0.0086774 -0.00528333 -0.00434533 0.0026212 0.0257227 0.0267204 0.0157875 0.0120146 0.00928151 0.00689576 0.00517524 0.00414271 0.00352459 0.0031154 0.00259934 0.0016434 0.00187951 0.000418675 -0.00158045 -0.00325878 -0.00337977 0.000851371 0.0119484 0.0285011 0.0527174 0.0671873 0.0583567 0.0348544 0.0127676 0.00167654 -0.00491478 -0.00596305 -0.00419881 -0.00652362 -0.0111448 0.0119671 0.0450283 0.0448203 0.00559562 0.00044345 0.00469032 0.00473402 0.00398856 0.00351035 0.00325774 0.00321687 0.00309058 0.00271722 0.00385097 0.00339663 0.00276522 0.00239259 0.00293265 0.00562057 0.0123365 0.0212871 0.0391969 0.0510412 0.0448868 0.0276473 0.0102681 0.00519139 0.000918328 -0.000229636 -0.00168862 -0.00634468 -0.00111688 0.0236787 0.0405617 0.0456677 0.00755673 -0.00199414 0.000106925 0.00427477 0.00429979 0.00421915 0.00396292 0.00405743 0.0040974 0.0040773 0.00544897 0.00552281 0.00563053 0.00602987 0.00701992 0.00930174 0.013684 0.019946 0.0291209 0.0356238 0.0324929 0.0228692 0.0132486 0.00821954 0.00479175 0.00409049 0.00342731 0.00242859 0.0105864 0.0160951 0.0234335 0.0375469 0.0287814 0.00185637 -0.0088187 0.00046412 0.0030195 0.00433474 0.00457034 0.00494728 0.00516047 0.00535013 0.00694881 0.00719673 0.00758821 0.00827916 0.00942811 0.011307 0.0143308 0.0180339 0.022895 0.0260921 0.0244323 0.019466 0.0139435 0.0106145 0.00857071 0.00778828 0.0121349 0.0147896 0.00937412 0.00461333 0.0147566 0.0238909 0.017463 0.00639728 0.00211108 0.00587132 0.00691436 0.00694968 0.00668857 0.00666752 0.00669397 0.00680487 0.0082232 0.00848175 0.0089119 0.00963033 0.0106546 0.0121733 0.0142251 0.0166759 0.0193017 0.0209388 0.0200437 0.0172384 0.0139678 0.0111676 0.0095743 0.00828532 0.0139745 0.020426 0.0106992 -0.00597736 0.00753805 0.00435373 -0.00543849 0.0182699 0.0222402 0.0147977 0.0120619 0.00998063 0.00897619 0.00842223 0.00818726 0.00813937 0.00929434 0.00949294 0.00985896 0.0104757 0.0113114 0.0124694 0.0138786 0.0154525 0.0169344 0.0178167 0.0173304 0.0157752 0.0138391 0.0119642 0.0107659 0.0100292 0.0130208 0.0224178 0.0197426 -0.0165545 -0.00736377 -1.81699e-05 0.0108216 0.0246333 0.0198117 0.0134064 0.0121795 0.0109151 0.0102328 0.00970666 0.00941661 0.00928207 0.0101743 0.0102909 0.0105574 0.0110332 0.0116524 0.012495 0.0134351 0.0144656 0.0153304 0.0158309 0.0155592 0.014659 0.0134762 0.0122261 0.0112345 0.0107084 0.0107266 0.0161529 0.0168505 -0.0126804 -0.009614 0.00294343 0.0192483 0.0211019 0.0163124 0.0142808 0.0134001 0.012309 0.0115263 0.0108912 0.0104821 0.0102454 0.0108369 0.0108867 0.0110559 0.011386 0.0118108 0.0123852 0.0129906 0.0136397 0.0141375 0.0144225 0.0142694 0.0137721 0.0130575 0.0122603 0.011456 0.0107681 0.0098474 0.00930777 0.00809118 0.000488579 0.00444079 0.00988924 0.012732 0.0148411 0.013891 0.0136395 0.0132423 0.0125977 0.0120541 0.0115497 0.011183 0.0109415 0.0113584 0.0113496 0.0114295 0.0116244 0.0118741 0.0122182 0.0125595 0.012924 0.0131772 0.0133156 0.0132159 0.0129463 0.0125359 0.0121002 0.0115727 0.0111952 0.0105553 0.00988181 0.00912078 0.00376078 0.00536895 0.00826934 0.0110766 0.0130885 0.0132405 0.0135383 0.0133259 0.0129261 0.012498 0.0120682 0.0117293 0.0114881 0.0117442 0.0116949 0.0116996 0.0117743 0.0118716 0.0120199 0.0121488 0.0122895 0.0123607 0.0123864 0.0123086 0.0121772 0.0119581 0.0117495 0.011376 0.0110886 0.0104573 0.00979877 0.00899125 0.00722808 0.00790767 0.00947631 0.0106318 0.0121889 0.0125983 0.0130355 0.0130338 0.0128685 0.0126158 0.0123214 0.0120692 0.0118707 0.0120689 0.0119856 0.0119243 0.0118924 0.0118502 0.0118213 0.0117541 0.0116918 0.0115942 0.0115078 0.0114308 0.0113909 0.0113284 0.0113129 0.011137 0.0110449 0.0106307 0.0102671 0.0097113 0.00869678 0.00891601 0.00989073 0.0107636 0.0119269 0.0124031 0.0128544 0.012953 0.0129036 0.0127522 0.0125476 0.0123581 0.0121929 0.0123447 0.0122387 0.0121217 0.0119968 0.011825 0.0116331 0.0113719 0.0111128 0.0108352 0.0106272 0.0105476 0.010601 0.010702 0.0108736 0.010892 0.0109747 0.0107485 0.0106154 0.0102638 0.00996513 0.01007 0.0106984 0.0111945 0.0119755 0.0123609 0.012733 0.0128672 0.0128885 0.0128241 0.0127051 0.0125822 0.0124576 0.0126286 0.0125095 0.0123469 0.0121429 0.0118424 0.0114885 0.0110013 0.0105197 0.00999902 0.00962547 0.00953528 0.00970888 0.0100225 0.0104193 0.0106641 0.0109428 0.0109261 0.0109879 0.0108256 0.0107784 0.0108525 0.011295 0.0116531 0.0121983 0.0125094 0.0128019 0.0129335 0.0129811 0.0129632 0.0128982 0.0128216 0.0127297 0.0129224 0.0128061 0.0126141 0.012352 0.0119307 0.0114233 0.0106665 0.00991836 0.00903606 0.00841339 0.00831331 0.00869152 0.00932083 0.0100151 0.0105258 0.0110145 0.0111924 0.0114033 0.0113968 0.0114966 0.0115856 0.0119028 0.0121515 0.0125067 0.012724 0.012928 0.0130352 0.0130911 0.0131062 0.0130873 0.0130555 0.0130018 
        </DataArray>
        <DataArray Name="vz" NumberOfComponents="1" type="Float32" format="ascii">
0 0 0 0 0 0 0 0 0 0 0 0 0 0 0 0 0 0 0 0 0 0 0 0 0 0 0 0 0 0 0 0 0 0 0 0 0 0 0 0 0 0 0 0 0 0 0 0 0 0 0 0 0 0 0 0 0 0 0 0 0 0 0 0 0 0 0 0 0 0 0 0 0 0 0 0 0 0 0 0 0 0 0 0 0 0 0 0 0 0 0 0 0 0 0 0 0 0 0 0 0 0 0 0 0 0 0 0 0 0 0 0 0 0 0 0 0 0 0 0 0 0 0 0 0 0 0 0 0 0 0 0 0 0 0 0 0 0 0 0 0 0 0 0 0 0 0 0 0 0 0 0 0 0 0 0 0 0 0 0 0 0 0 0 0 0 0 0 0 0 0 0 0 0 0 0 0 0 0 0 0 0 0 0 0 0 0 0 0 0 0 0 0 0 0 0 0 0 0 0 0 0 0 0 0 0 0 0 0 0 0 0 0 0 0 0 0 0 0 0 0 0 0 0 0 0 0 0 0 0 0 0 0 0 0 0 0 0 0 0 0 0 0 0 0 0 0 0 0 0 0 0 0 0 0 0 0 0 0 0 0 0 0 0 0 0 0 0 0 0 0 0 0 0 0 0 0 0 0 0 0 0 0 0 0 0 0 0 0 0 0 0 0 0 0 0 0 0 0 0 0 0 0 0 0 0 0 0 0 0 0 0 0 0 0 0 0 0 0 0 0 0 0 0 0 0 0 0 0 0 0 0 0 0 0 0 0 0 0 0 0 0 0 0 0 0 0 0 0 0 0 0 0 0 0 0 0 0 0 0 0 0 0 0 0 0 0 0 0 0 0 0 0 0 0 0 0 0 0 0 0 0 0 0 0 0 0 0 0 0 0 0 0 0 0 0 0 0 0 0 0 0 0 0 0 0 0 0 0 0 0 0 0 0 0 0 0 0 0 0 0 0 0 0 0 0 0 0 0 0 0 0 0 0 0 0 0 0 0 0 0 0 0 0 0 0 0 0 0 0 0 0 0 0 0 0 0 0 0 0 0 0 0 0 0 0 0 0 0 0 0 0 0 0 0 0 0 0 0 0 0 0 0 0 0 0 0 0 0 0 0 0 0 0 0 0 0 0 0 0 0 0 0 0 0 0 0 0 0 0 0 0 0 0 0 0 0 0 0 0 0 0 0 0 0 0 0 0 0 0 0 0 0 0 0 0 0 0 0 0 0 0 0 0 0 0 0 0 0 0 0 0 0 0 0 0 0 0 0 0 0 0 0 0 0 0 0 0 0 0 0 0 0 0 0 0 0 0 0 0 0 0 0 0 0 0 0 0 0 0 0 0 0 0 0 0 0 0 0 0 0 0 0 0 0 0 0 0 0 0 0 0 0 0 0 0 0 0 0 0 0 0 0 0 0 0 0 0 0 0 0 0 0 0 0 0 0 0 0 0 0 0 0 0 0 0 0 0 0 0 0 0 0 0 0 0 0 0 0 0 0 0 0 0 0 0 0 0 0 0 0 0 0 0 0 0 0 0 0 0 0 0 0 0 0 0 0 0 0 0 0 0 0 0 0 0 0 0 0 0 0 0 0 0 0 0 0 0 0 0 0 0 0 0 0 0 0 0 0 0 0 0 0 0 0 0 0 0 0 0 0 0 0 0 0 0 0 0 0 0 0 0 0 0 0 0 0 0 0 0 0 0 0 0 0 0 0 0 0 0 0 0 0 0 0 0 0 0 0 0 0 0 0 0 0 0 0 0 0 0 0 0 0 0 0 0 0 0 0 0 0 0 0 0 0 0 0 0 0 0 0 0 0 0 0 0 0 0 0 0 0 0 0 0 0 0 0 0 0 0 0 0 0 0 0 0 0 0 0 0 0 0 0 0 0 0 0 0 0 0 0 0 0 0 0 0 0 0 0 0 0 0 0 0 0 0 0 0 0 0 0 0 0 0 0 0 0 0 0 0 0 0 0 0 0 0 0 0 0 0 0 0 0 0 0 0 0 0 0 0 0 0 0 0 0 0 0 0 0 0 0 0 0 0 0 0 0 0 0 0 0 0 0 0 0 0 0 0 0 0 0 0 0 0 0 0 0 0 0 0 0 0 0 0 0 0 0 0 0 0 0 0 0 0 0 0 0 0 0 0 0 0 0 0 0 0 0 0 0 0 0 0 0 0 0 0 0 0 0 0 0 0 0 0 0 0 0 0 0 0 0 0 0 0 0 0 0 0 0 0 0 0 0 0 0 0 0 0 0 0 0 0 0 0 0 0 0 0 0 0 0 0 0 0 0 0 0 0 0 0 0 0 0 0 
        </DataArray>
        <DataArray Name="p" NumberOfComponents="1" type="Float32" format="ascii">