<?xml version="1.0"?>
<VTKFile type="StructuredGrid" version="0.1" byte_order="LittleEndian">
  <StructuredGrid WholeExtent="0 32 0 32 0 1">
    <Piece Extent="0 32 0 32 0 1">
      <PointData>
      </PointData>
      <CellData>
        <DataArray Name="vx" NumberOfComponents="1" type="Float32" format="ascii">
0.0194254 0.0193469 0.019281 0.0191256 0.0190524 0.0188926 0.0189542 0.0190612 0.0194765 0.0201241 0.0204062 0.0210145 0.0213415 0.0216383 0.0218351 0.0218101 0.0218057 0.021602 0.0213709 0.0209671 0.0204766 0.0199796 0.0195192 0.0192527 0.0190905 0.0190615 0.0191186 0.0192016 0.0193057 0.0193801 0.0194348 0.0194403 0.0194072 0.0192717 0.0191423 0.0188412 0.0186429 0.0182441 0.0182353 0.0182431 0.0188462 0.0199208 0.0203554 0.0213572 0.0217595 0.0220819 0.0222471 0.0220371 0.0219205 0.0216083 0.0213552 0.0209852 0.0205936 0.0201908 0.0197881 0.0195267 0.0193355 0.0192656 0.019275 0.0193172 0.0193857 0.0194332 0.0194668 0.0194475 0.0194166 0.0191859 0.0189067 0.0183133 0.017758 0.0168719 0.0166093 0.0164547 0.0179705 0.0199831 0.0203407 0.0219568 0.0227625 0.0233141 0.0233866 0.0227736 0.0223771 0.0217979 0.021442 0.0210265 0.0206944 0.0203522 0.0199642 0.0197077 0.0194817 0.0193961 0.0193865 0.0194168 0.0194748 0.0195133 0.0195368 0.019495 0.0194156 0.0190162 0.0184426 0.0173013 0.0161174 0.0144 0.0139079 0.0136311 0.0162492 0.0198011 0.0206039 0.0235302 0.0247713 0.0256122 0.0257206 0.0243968 0.0234132 0.0222857 0.0216583 0.0211223 0.0208382 0.0205047 0.020105 0.0198447 0.0195615 0.0194787 0.0194669 0.0195041 0.0195672 0.0196088 0.0196284 0.0195606 0.0194203 0.0187382 0.0176066 0.0155729 0.0131958 0.0105351 0.00989576 0.0105261 0.0195691 0.0248311 0.0194923 0.0212314 0.0252523 0.0290636 0.0298051 0.0274613 0.0253544 0.0231865 0.0219536 0.0210902 0.0208506 0.0205059 0.0201102 0.0199139 0.0195484 0.0194935 0.0195092 0.019584 0.0196791 0.0197449 0.0197736 0.0196773 0.0194451 0.0184066 0.0165448 0.0135243 0.0103232 0.00811557 0.0105154 0.0156877 0.0255883 0.0275045 0.0193026 0.0192783 0.0213161 0.0275328 0.0328148 0.0309449 0.0278267 0.0243577 0.0221194 0.0208231 0.0206376 0.0201918 0.0199448 0.0198801 0.0194308 0.0194538 0.0195212 0.0196531 0.0197956 0.0199048 0.0199581 0.0198481 0.0196227 0.018289 0.0159076 0.0127088 0.00988774 0.0111837 0.0127102 0.0161412 0.00804646 0.00846395 0.0285843 0.0410589 0.033988 0.0273309 0.0338003 0.0329783 0.0296361 0.0250723 0.0214478 0.0196925 0.0195488 0.018038 0.0184715 0.0196893 0.0192643 0.0194051 0.019548 0.019749 0.0199577 0.0201297 0.0202343 0.0201334 0.020336 0.0193004 0.0173136 0.0154826 0.0146871 0.017318 0.0153293 0.00854266 0.00630678 0.0137756 0.0265709 0.0338166 0.0370304 0.032691 0.0300687 0.030963 0.0280475 0.0238555 0.0190763 0.0177671 0.0178788 0.0149972 0.0166187 0.0190759 0.0189973 0.0193521 0.0195788 0.0198354 0.0201204 0.0203956 0.0206248 0.0206995 0.0216426 0.0214166 0.0210173 0.0211786 0.0230867 0.0253869 0.0228894 0.0211038 0.0235362 0.0247436 0.0242128 0.0221722 0.0290076 0.0287395 0.0216471 0.0234143 0.0223016 0.0199989 0.0151237 0.0126805 0.0159668 0.0214676 0.0240858 0.0219254 0.0203923 0.0196668 0.0197477 0.0199359 0.0202959 0.020693 0.0211206 0.0214832 0.0236331 0.0251384 0.027218 0.0304473 0.0356735 0.0385586 0.0375303 0.0371824 0.0340446 0.0277641 0.022764 0.016439 0.0169403 0.0184542 0.0121374 0.0116403 0.0148471 0.0166907 0.0161862 0.0174476 0.0194261 0.023404 0.0252846 0.0219476 0.0204451 0.019581 0.019751 0.0199472 0.0204046 0.0209703 0.0216795 0.0225712 0.0255046 0.0287476 0.0332704 0.0387995 0.0445966 0.0460739 0.0450271 0.0431504 0.0365257 0.0278976 0.0202844 0.0114432 0.00616198 0.00406426 8.72741e-05 0.00160263 0.00827634 0.0147743 0.0222319 0.027255 0.023361 0.0237997 0.0194383 0.0139373 0.0170725 0.0174789 0.0187293 0.0193611 0.0201716 0.0210193 0.0220602 0.0234703 0.0266193 0.0311603 0.0364817 0.04362 0.0437052 0.0428431 0.0462838 0.0436131 0.0362151 0.0269442 0.0190822 0.0102215 0.00393706 0.00268121 0.00478971 0.00474864 0.00605617 0.0128062 0.0199512 0.0239195 0.0214236 0.0205278 0.0183771 0.0163621 0.0180894 0.0184229 0.0188427 0.0193696 0.0201018 0.0210472 0.0222535 0.024032 0.0265075 0.0312385 0.0363829 0.0435905 0.0411853 0.0407118 0.0457667 0.0419097 0.0348203 0.0254792 0.0175901 0.00887201 0.00268388 0.00263335 0.00755893 0.00653292 0.00528593 0.011009 0.0156038 0.0172159 0.0170214 0.0131451 0.0125714 0.0160707 0.0163619 0.0172272 0.0177698 0.0186616 0.0195994 0.0207137 0.0220122 0.0238804 0.0254343 0.0291334 0.034122 0.0403016 0.0441752 0.0503353 0.0498854 0.0413401 0.0336248 0.0239149 0.015751 0.00657741 0.000298106 -0.00119985 -0.000283687 0.00159037 0.00550224 0.0113195 0.0153567 0.0160093 0.0157947 0.012818 0.0120538 0.0150392 0.0155169 0.0166269 0.0172694 0.0182833 0.0192528 0.0203505 0.0215671 0.023156 0.0233574 0.0254439 0.0289935 0.0338302 0.0424523 0.0500893 0.0453027 0.0364142 0.0307839 0.0222035 0.0152204 0.00742759 0.00295077 0.00164914 0.00117961 0.00529594 0.0114932 0.0161003 0.018868 0.0187533 0.0170553 0.0139828 0.0130962 0.0143854 0.0146066 0.0158062 0.016614 0.0177797 0.0187917 0.0198358 0.0208342 0.0219419 0.0204827 0.0199962 0.019946 0.0194661 0.0224178 0.017389 0.0102764 0.0144454 0.0192848 0.0173849 0.0143273 0.0106003 0.0125221 0.0105418 0.00770632 0.0141615 0.0195522 0.0223627 0.0241594 0.0230319 0.0185826 0.0129403 0.0114859 0.0133976 0.0142365 0.0158562 0.0167955 0.0179481 0.0188043 0.0195773 0.0201331 0.0204336 0.0186886 0.0168525 0.01442 0.0113646 0.0104514 0.00803985 0.00154695 -0.000668538 0.0046499 0.0119123 0.0187654 0.0284447 0.0341704 0.0293024 0.0260578 0.0280519 0.0297788 0.0293766 0.0303264 0.0287011 0.0205009 0.0111067 0.00972969 0.0127272 0.0142497 0.0162152 0.0171773 0.0182859 0.0189663 0.0195036 0.0197019 0.0194976 0.0179212 0.0153513 0.0118618 0.0067767 0.00444241 0.0032899 0.00747311 -0.000607173 -0.00796116 0.00682181 0.0255138 0.0457997 0.0438419 0.0336847 0.0356003 0.0351461 0.0349403 0.0343735 0.0406792 0.0372554 0.0196444 0.000916345 -0.000301119 0.0105774 0.015465 0.0184289 0.019344 0.020028 0.0202112 0.0202364 0.0199441 0.0192441 0.0180991 0.0158011 0.0126167 0.00782091 0.00420885 0.00240281 0.00942693 0.0209922 0.0161058 0.013385 0.0245775 0.0231504 0.0203677 0.0290744 0.034565 0.0357881 0.0355321 0.0383661 0.045382 0.034625 0.0183776 0.00298352 -0.00163624 0.0087855 0.015865 0.0200539 0.0210438 0.0214416 0.0212385 0.0209165 0.0203232 0.0194475 0.018834 0.0169484 0.0145843 0.0110648 0.00794779 0.00531727 0.0076944 0.0183884 0.0278202 0.0277048 0.0191067 0.0150884 0.0221323 0.0313083 0.0328077 0.031805 0.0285896 0.0333793 0.025902 0.0182886 0.0301395 0.0402459 0.0379185 0.0271029 0.0279757 0.0267188 0.0261461 0.0249014 0.0236724 0.0225279 0.0213849 0.0202018 0.0194404 0.0180197 0.0164528 0.0142831 0.012405 0.0104701 0.0109677 0.0147546 0.0218115 0.025681 0.0215945 0.021674 0.0258514 0.0275692 0.0263425 0.0233577 0.018175 0.010422 -0.00545423 -0.000759209 0.0241948 0.0488199 0.0584716 0.0493951 0.0401423 0.0328178 0.0294467 0.0268018 0.0248336 0.0232745 0.0219052 0.0206739 0.0200915 0.0189342 0.0178436 0.0165667 0.0155805 0.0146428 0.0148489 0.0166284 0.0196747 0.0221688 0.0218843 0.0220992 0.023161 0.0230515 0.0211565 0.0167503 0.0104945 -0.00792584 -0.0240699 -0.00698689 0.0185676 0.0405616 0.0541705 0.0488881 0.0405363 0.0360944 0.0317077 0.0287037 0.0262433 0.0242987 0.0226556 0.0212997 0.0203082 0.0194242 0.0186691 0.017917 0.0174418 0.0170566 0.0173161 0.018214 0.0196692 0.0210538 0.0209869 0.0211335 0.0213166 0.0207395 0.0191859 0.0165781 0.0121682 0.00443656 -0.0105873 -0.00305131 0.0192895 0.0483204 0.0651523 0.0562903 0.0439828 0.0355961 0.0309399 0.0278997 0.0256489 0.0239143 0.0224739 0.0213121 0.0204754 0.0197683 0.0191959 0.0187102 0.0184481 0.0183151 0.0185418 0.0191031 0.0198411 0.0205413 0.0205784 0.0206306 0.020595 0.0203182 0.0195679 0.0191796 0.0193326 0.0243827 0.0297028 0.0285799 0.0264405 0.0463232 0.0498974 0.0344342 0.031838 0.0288958 0.0277391 0.0261325 0.0247517 0.0234394 0.0222879 0.0213148 0.0203465 0.0198504 0.0194481 0.0191356 0.0189864 0.0189543 0.0191381 0.0195016 0.0199337 0.0203719 0.0204702 0.0205767 0.0206079 0.0204923 0.0203392 0.0203621 0.0219193 0.0271619 0.0386455 0.0403448 0.0291684 0.0111968 0.00339892 0.0111894 0.0185091 0.0222258 0.0233402 0.0233181 0.022873 0.0222296 0.0215556 0.0209252 0.0202367 0.019886 0.0195965 0.0193854 0.0192897 0.0192964 0.0194399 0.019704 0.0200041 0.0203293 0.0204944 0.0206708 0.0208013 0.0208662 0.0210064 0.0211482 0.0225599 0.024809 0.0330072 0.0338948 0.0250942 0.00763328 0.000701732 0.0119823 0.0171695 0.0201928 0.0213215 0.0216952 0.0216779 0.0213999 0.0210326 0.0206321 0.0200278 0.019815 0.0196306 0.0195006 0.0194493 0.019479 0.0196024 0.0198156 0.0200602 0.0203505 0.0205724 0.0208277 0.0210766 0.0212969 0.0216407 0.0218571 0.022844 0.0233894 0.0263292 0.0249784 0.0203718 0.0137619 0.0101024 0.014224 0.0164226 0.0184264 0.0195225 0.02017 0.0204779 0.0205182 0.0204262 0.0202458 0.0198727 0.0197455 0.0196295 0.0195494 0.0195264 0.019567 0.0196798 0.0198671 0.0200875 0.0203641 0.0206114 0.0209052 0.0212031 0.0214992 0.0219068 0.0221789 0.0229618 0.0231246 0.0242741 0.0230936 0.019962 0.0157761 0.013563 0.0155194 0.0165433 0.0179116 0.0188106 0.0194409 0.0198364 0.0200043 0.020046 0.0199851 0.0197161 0.0196498 0.0195851 0.0195384 0.0195371 0.0195823 0.0196923 0.019868 0.0200828 0.0203653 0.0206291 0.0209522 0.021272 0.0215989 0.0219887 0.0222421 0.0227205 0.0226881 0.0228911 0.0218476 0.0199664 0.0177874 0.0162989 0.0167521 0.0171132 0.0178843 0.0185223 0.0190345 0.0194176 0.0196311 0.0197415 0.0197553 0.0196055 0.0195662 0.0195275 0.0194914 0.0195001 0.0195382 0.0196476 0.0198166 0.0200341 0.0203345 0.0206014 0.0209419 0.0212515 0.0215669 0.0219042 0.0221168 0.0224258 0.0223496 0.0223003 0.0215011 0.0201555 0.0186705 0.017588 0.0176039 0.0177036 0.018134 0.0185639 0.0189417 0.0192574 0.0194535 0.0195736 0.0196123 0.0195173 0.0194849 0.0194561 0.0194108 0.0194165 0.0194296 0.0195351 0.0196972 0.019937 0.0202842 0.0205532 0.020928 0.0212264 0.0215235 0.0218007 0.0219483 0.0221066 0.0219794 0.0217828 0.021165 0.0202642 0.0193209 0.0185548 0.0183515 0.018295 0.0184785 0.0187318 0.0189789 0.0192107 0.0193661 0.0194714 0.019512 0.0194577 0.0194104 0.0193738 0.0192931 0.0192819 0.0192408 0.0193414 0.0194867 0.0197617 0.0202017 0.0204793 0.0209313 0.0212236 0.0215074 0.0217414 0.0218197 0.0218934 0.0217411 0.0215218 0.0210371 0.0203782 0.0197011 0.0191207 0.0188657 0.0187441 0.0187957 0.0189327 0.0190836 0.0192426 0.0193535 0.0194328 0.0194582 
        </DataArray>
        <DataArray Name="vy" NumberOfComponents="1" type="Float32" format="ascii">
0.0124362 0.012421 0.0123468 0.0122949 0.0120908 0.0119699 0.0115225 0.0113637 0.0107557 0.0108144 0.0106404 0.0106226 0.0107871 0.010748 0.0109083 0.0108445 0.010809 0.0106573 0.0105464 0.0104194 0.0104589 0.0106225 0.0109518 0.0113033 0.0116313 0.011914 0.0121173 0.0122677 0.0123577 0.0124145 0.0124396 0.0124513 0.0124917 0.0125194 0.0124829 0.0124627 0.0122451 0.0120626 0.0114074 0.0110463 0.0100038 0.010409 0.0102127 0.0101396 0.0104328 0.0104803 0.0108791 0.0109028 0.01097 0.0109081 0.0108625 0.0108553 0.0108945 0.0110839 0.0112822 0.0115361 0.0117361 0.0119225 0.0120657 0.0121868 0.0122789 0.0123554 0.0124138 0.0124647 0.0126044 0.0127045 0.0127633 0.0128384 0.0126711 0.0124609 0.0114985 0.0108619 0.00897251 0.00933807 0.00901615 0.00920986 0.0100725 0.0102381 0.0110113 0.0111255 0.0112588 0.0112015 0.0111646 0.0111912 0.0112388 0.0114692 0.0115892 0.0117903 0.0118829 0.0119829 0.0120674 0.0121557 0.0122438 0.0123336 0.0124237 0.012517 0.0127843 0.0130344 0.0133142 0.0135997 0.0136074 0.0131475 0.011678 0.00968501 0.00611225 0.00872436 0.00854692 0.00800728 0.00882632 0.00973688 0.0114059 0.0118185 0.0119925 0.0118091 0.0116615 0.0115892 0.011576 0.0118536 0.0118653 0.0120413 0.012017 0.0120206 0.0120405 0.012096 0.012183 0.012293 0.012428 0.0125884 0.0131527 0.0137157 0.0144951 0.0152449 0.0156468 0.0147975 0.0124713 0.00861595 0.00279698 0.00470476 0.00422237 0.00502426 0.00809638 0.00949579 0.0124348 0.0134095 0.0134751 0.0128926 0.0123969 0.0119474 0.0118838 0.0122113 0.0122059 0.0124084 0.0122283 0.0121035 0.0120429 0.0120593 0.0121439 0.0122768 0.0124753 0.0127446 0.0136937 0.0148311 0.016419 0.0179081 0.0185914 0.0160362 0.0116188 -0.000620901 -0.00996204 0.011796 0.0140149 0.00374519 -0.00124805 0.00471956 0.0127516 0.0160359 0.016336 0.0150661 0.0138771 0.0124935 0.012394 0.0127117 0.0122623 0.0126618 0.0123526 0.0120752 0.0119361 0.0119256 0.012021 0.0121954 0.0124865 0.0129379 0.0146226 0.016666 0.0194586 0.0215295 0.0213588 0.0145406 0.00621137 -0.00692861 -0.00693401 0.00856509 0.00732188 0.00278619 0.00163569 -0.000239591 0.00951565 0.018539 0.0202831 0.0184821 0.0162652 0.0131301 0.0126283 0.0126582 0.0124995 0.0131321 0.0126001 0.0120708 0.0118328 0.0117891 0.0118972 0.0121199 0.0125445 0.0132799 0.0155026 0.0185131 0.021977 0.0237182 0.0205231 0.0120909 0.00915488 0.000811399 -0.00107716 -0.00913643 -0.0133537 -0.00254712 0.0112302 0.00246518 0.00748218 0.0199643 0.0244351 0.0228812 0.0195836 0.0131304 0.0158376 0.014217 0.00971244 0.0119625 0.0124781 0.0118456 0.0115979 0.0115334 0.0116498 0.0119175 0.012472 0.0135392 0.0160616 0.0197075 0.0233316 0.0240332 0.0195048 0.0126945 0.0145089 0.00204567 -0.00982178 -0.0130132 -0.0137901 -0.00796241 0.00548583 0.00853415 0.00919572 0.0203139 0.0272998 0.0271745 0.0235918 0.0134885 0.0147626 0.012777 0.00912554 0.0114525 0.0122002 0.0115268 0.011286 0.0112092 0.0113217 0.0116064 0.0122538 0.0135844 0.0155501 0.0191315 0.0222569 0.0216095 0.0171875 0.0116382 0.0143609 0.00128193 -0.006794 -0.00977226 -0.0104995 -0.00786905 0.00215716 0.0108918 0.0122954 0.020953 0.0281613 0.0299757 0.0268162 0.0120419 0.00794761 0.00654309 0.00838307 0.0150903 0.0151222 0.0125957 0.0115145 0.0110515 0.0109524 0.011109 0.0116838 0.0130108 0.0135505 0.016127 0.0181284 0.0157624 0.011525 0.0107732 0.0154665 0.00580519 -0.000285997 -0.00194857 -0.00259938 -0.00195678 0.00467278 0.013455 0.01575 0.016703 0.0222379 0.0253111 0.0227837 0.0109625 0.00850581 0.00721741 0.0117156 0.0164763 0.014084 0.0118334 0.0107139 0.0103794 0.0102288 0.0102819 0.0106539 0.0116231 0.0103095 0.011255 0.0122402 0.0100791 0.00944228 0.0120424 0.0160458 0.0110631 0.00808363 0.006589 0.00593834 0.00612775 0.0101269 0.0156599 0.0160912 0.0125989 0.0148493 0.016617 0.0145614 0.0107487 0.0110204 0.00908857 0.018242 0.0171176 0.0120879 0.0109363 0.00999701 0.0096942 0.00940686 0.00924986 0.00926288 0.00953594 0.00648581 0.00597019 0.00582706 0.00760674 0.0124584 0.00881998 0.0140923 0.0164186 0.0164433 0.0152377 0.0140841 0.0131797 0.0124336 0.0117875 0.0140693 0.015944 0.0135253 0.0117512 0.0105728 0.0102425 0.0122927 0.0104167 0.0169555 0.015987 0.0123239 0.0107432 0.00958777 0.00896286 0.00846037 0.00806454 0.00765922 0.00717154 0.00313934 0.00126801 0.000450648 0.00532903 0.0134825 0.00771269 0.0140145 0.021719 0.0243353 0.0236594 0.0224915 0.0210658 0.0166413 0.0108103 0.0122149 0.0151137 0.00978083 0.00675213 0.00765198 0.0100204 0.0138124 0.0134229 0.0152587 0.0132892 0.0111836 0.00981623 0.00874934 0.00803064 0.00743961 0.00688694 0.0061625 0.00501476 0.000458087 -0.00297119 -0.00552932 -0.00309228 0.00168406 0.00317749 0.0231546 0.0330532 0.0341952 0.0332559 0.0314418 0.0284887 0.0198592 0.0110442 0.012148 0.0105353 0.00404998 0.00244395 0.00558234 0.0106856 0.0151735 0.0150963 0.014505 0.0124419 0.0103872 0.00885666 0.00767543 0.00688537 0.00627811 0.00568856 0.00480583 0.00321288 -0.000240811 -0.00417071 -0.0077013 -0.00748901 -0.00253784 0.0061331 0.0265179 0.0360819 0.0379574 0.0386843 0.0370955 0.0330543 0.023745 0.0128042 0.00917061 0.00364629 -0.00147505 -0.000739066 0.0044882 0.0120105 0.017822 0.0174131 0.0146272 0.0121313 0.00980051 0.00816334 0.00686821 0.00604799 0.0054582 0.00493424 0.00412388 0.00257019 0.000711126 -0.00249723 -0.005587 -0.0055022 0.0020568 0.0156086 0.0264404 0.0251933 0.0319756 0.0390126 0.0386285 0.0307676 0.0191241 0.0151387 0.00833372 -0.000899203 -0.00404143 -0.00180088 0.0047198 0.0171486 0.0250563 0.0228318 0.0136975 0.00967946 0.0075107 0.00620503 0.0052898 0.00477934 0.00449511 0.00428571 0.00384953 0.00280094 0.00247994 0.000380452 -0.00206956 -0.00286695 0.00171429 0.0155556 0.0348693 0.0345323 0.0221513 0.0231848 0.0195692 0.015587 0.0249625 0.0223156 0.0103983 0.000244133 -0.00268508 -0.00133195 0.00498129 0.0220858 0.0346204 0.0279856 0.0134836 0.0079675 0.00645109 0.0056375 0.00491391 0.00451019 0.00434553 0.0043334 0.0042077 0.00370955 0.00443099 0.0035682 0.0025227 0.00191897 0.00449052 0.0116202 0.0285595 0.0407103 0.0268409 0.0075577 0.00118856 0.0144213 0.0308252 0.0208033 0.00626395 -0.000965528 -0.00318102 -0.00779529 0.00165194 0.039738 0.0609177 0.0422436 0.0037628 -0.00695418 -0.000451343 0.00214852 0.00343581 0.0037794 0.00410501 0.00445511 0.0047228 0.0047748 0.00615745 0.00605722 0.00591596 0.00592628 0.00744901 0.0106899 0.0187355 0.0267965 0.0293327 0.0127863 0.00806321 0.0192088 0.0182268 0.0105759 0.00400931 -0.000394849 -0.00497041 -0.0124312 0.0079056 0.0488984 0.0653631 0.0490833 0.0103228 -0.0104183 -0.00477911 0.000452038 0.00355001 0.00449186 0.00496946 0.00538372 0.00575332 0.00604434 0.00758195 0.00784421 0.00820388 0.00863106 0.00992706 0.0116818 0.0156471 0.0192089 0.0199255 0.0157267 0.0129619 0.0139032 0.0136889 0.00987621 0.00562432 0.00259725 -0.00313879 -0.00605351 0.0203557 0.0353902 0.038816 0.0325739 0.0157883 0.00107396 0.00315268 0.00432193 0.00567648 0.0062584 0.00641905 0.00666535 0.00695862 0.00728462 0.00882515 0.0091411 0.00960532 0.0101406 0.0111894 0.0122688 0.01444 0.0158297 0.0168456 0.0143834 0.0128862 0.0134742 0.0122866 0.0103775 0.00854268 0.00781911 0.00843534 0.00997827 0.0195175 0.0169697 0.0171719 0.0163425 0.0128258 0.00834346 0.00930474 0.00876428 0.00898061 0.00878887 0.00846382 0.00834656 0.0084017 0.00857712 0.00989256 0.0101059 0.010489 0.0109595 0.0117399 0.0124654 0.0136639 0.0143134 0.0146321 0.0136916 0.0129666 0.0129126 0.0125211 0.0117489 0.0116078 0.0131822 0.0203358 0.0291763 0.020848 -0.00832077 -0.0081512 -0.00449355 0.00385787 0.014827 0.0175841 0.0156194 0.0137564 0.0119989 0.0109032 0.0102254 0.0099114 0.00981671 0.0107302 0.0108268 0.0110851 0.0114336 0.0119788 0.0124612 0.0131794 0.0134994 0.0137493 0.0132858 0.0129416 0.0129612 0.0127136 0.0125369 0.0127814 0.0147708 0.0204413 0.0319206 0.025278 -0.0119584 -0.033282 -0.0315199 0.00801693 0.0306604 0.027891 0.020748 0.0163854 0.0139073 0.0124731 0.0115586 0.0110534 0.0107911 0.0114038 0.0113822 0.0115098 0.0117334 0.0120846 0.0124102 0.0128372 0.013045 0.0131892 0.0130287 0.0128933 0.0129085 0.0128163 0.0127808 0.0128169 0.0137947 0.0155391 0.0211098 0.0170316 -0.00490203 -0.0266192 -0.0274199 0.016422 0.0306998 0.024092 0.0196242 0.0166981 0.0148771 0.0135638 0.0126119 0.0119866 0.011592 0.0118247 0.0117494 0.011793 0.0119213 0.012132 0.0123396 0.0125932 0.0127294 0.0128344 0.0127966 0.012761 0.0128083 0.0127878 0.0127983 0.012785 0.0130081 0.0131516 0.0137345 0.0109174 -0.00100981 -0.00528485 -0.00649303 0.00929086 0.0167317 0.0170423 0.0163525 0.0154669 0.0145247 0.0136746 0.0129505 0.012415 0.0120388 0.0121284 0.0120146 0.0119931 0.0120466 0.0121517 0.0122734 0.0124074 0.0124951 0.0125513 0.0125586 0.0125559 0.0126026 0.0126082 0.0126126 0.0125374 0.0124305 0.012077 0.0110782 0.00910612 0.0022166 -0.000552913 -0.000910805 0.00980499 0.0136746 0.015046 0.0152488 0.0149367 0.0143809 0.013765 0.013186 0.0127129 0.0123576 0.0122685 0.0121582 0.0121066 0.0121133 0.0121439 0.0121996 0.0122447 0.0122861 0.0122928 0.0123021 0.0122924 0.0123166 0.0123074 0.012266 0.0121395 0.0118387 0.0113819 0.0101758 0.00891453 0.00530078 0.00468474 0.00435517 0.00893233 0.0112571 0.0129103 0.0136218 0.0138276 0.0136962 0.013399 0.0130496 0.0127235 0.0124582 0.0123571 0.0122529 0.0121797 0.0121518 0.0121226 0.0121266 0.0120952 0.0120961 0.0120461 0.0120424 0.0120111 0.0120127 0.0119934 0.0119336 0.0118044 0.0114842 0.011061 0.0100129 0.00913105 0.00685065 0.00648912 0.00638826 0.00931726 0.010869 0.0122403 0.0129457 0.0132611 0.0132957 0.0131531 0.0129398 0.0127125 0.0125144 0.0123791 0.0122957 0.0122158 0.012169 0.012092 0.0120546 0.0119478 0.011908 0.0117877 0.0117705 0.0117092 0.0116868 0.0116584 0.0115795 0.011459 0.0111713 0.010822 0.0100843 0.00952881 0.00835152 0.00827442 0.00828333 0.00974688 0.0107407 0.0117258 0.0123495 0.0127015 0.0128461 0.0128312 0.0127417 0.0126151 0.0124918 0.0123963 0.0123307 0.0122445 0.0121852 0.0120617 0.0119926 0.0118003 0.0117299 0.0115137 0.0114921 0.0113981 0.011365 0.0113586 0.0112847 0.011219 0.0110044 0.0107565 0.0102548 0.00988782 0.00920226 0.00917686 0.00926563 0.0101729 0.0108762 0.0115887 0.0120952 0.0124111 0.0125837 0.0126284 0.0126093 0.0125471 0.0124761 0.0124053 0.0123645 0.0122817 0.0122203 0.012055 0.0119516 0.0116506 0.0115287 0.0111689 0.0111896 0.0110672 0.0110255 0.0110673 0.0110092 0.0110309 0.0108932 0.0107518 0.0104607 0.0102496 0.00993472 0.00995705 0.0100892 0.0106044 0.0110838 0.0115632 0.0119456 0.012205 0.0123752 0.0124538 0.0124839 0.0124742 0.0124504 
        </DataArray>
        <DataArray Name="vz" NumberOfComponents="1" type="Float32" format="ascii">
0 0 0 0 0 0 0 0 0 0 0 0 0 0 0 0 0 0 0 0 0 0 0 0 0 0 0 0 0 0 0 0 0 0 0 0 0 0 0 0 0 0 0 0 0 0 0 0 0 0 0 0 0 0 0 0 0 0 0 0 0 0 0 0 0 0 0 0 0 0 0 0 0 0 0 0 0 0 0 0 0 0 0 0 0 0 0 0 0 0 0 0 0 0 0 0 0 0 0 0 0 0 0 0 0 0 0 0 0 0 0 0 0 0 0 0 0 0 0 0 0 0 0 0 0 0 0 0 0 0 0 0 0 0 0 0 0 0 0 0 0 0 0 0 0 0 0 0 0 0 0 0 0 0 0 0 0 0 0 0 0 0 0 0 0 0 0 0 0 0 0 0 0 0 0 0 0 0 0 0 0 0 0 0 0 0 0 0 0 0 0 0 0 0 0 0 0 0 0 0 0 0 0 0 0 0 0 0 0 0 0 0 0 0 0 0 0 0 0 0 0 0 0 0 0 0 0 0 0 0 0 0 0 0 0 0 0 0 0 0 0 0 0 0 0 0 0 0 0 0 0 0 0 0 0 0 0 0 0 0 0 0 0 0 0 0 0 0 0 0 0 0 0 0 0 0 0 0 0 0 0 0 0 0 0 0 0 0 0 0 0 0 0 0 0 0 0 0 0 0 0 0 0 0 0 0 0 0 0 0 0 0 0 0 0 0 0 0 0 0 0 0 0 0 0 0 0 0 0 0 0 0 0 0 0 0 0 0 0 0 0 0 0 0 0 0 0 0 0 0 0 0 0 0 0 0 0 0 0 0 0 0 0 0 0 0 0 0 0 0 0 0 0 0 0 0 0 0 0 0 0 0 0 0 0 0 0 0 0 0 0 0 0 0 0 0 0 0 0 0 0 0 0 0 0 0 0 0 0 0 0 0 0 0 0 0 0 0 0 0 0 0 0 0 0 0 0 0 0 0 0 0 0 0 0 0 0 0 0 0 0 0 0 0 0 0 0 0 0 0 0 0 0 0 0 0 0 0 0 0 0 0 0 0 0 0 0 0 0 0 0 0 0 0 0 0 0 0 0 0 0 0 0 0 0 0 0 0 0 0 0 0 0 0 0 0 0 0 0 0 0 0 0 0 0 0 0 0 0 0 0 0 0 0 0 0 0 0 0 0 0 0 0 0 0 0 0 0 0 0 0 0 0 0 0 0 0 0 0 0 0 0 0 0 0 0 0 0 0 0 0 0 0 0 0 0 0 0 0 0 0 0 0 0 0 0 0 0 0 0 0 0 0 0 0 0 0 0 0 0 0 0 0 0 0 0 0 0 0 0 0 0 0 0 0 0 0 0 0 0 0 0 0 0 0 0 0 0 0 0 0 0 0 0 0 0 0 0 0 0 0 0 0 0 0 0 0 0 0 0 0 0 0 0 0 0 0 0 0 0 0 0 0 0 0 0 0 0 0 0 0 0 0 0 0 0 0 0 0 0 0 0 0 0 0 0 0 0 0 0 0 0 0 0 0 0 0 0 0 0 0 0 0 0 0 0 0 0 0 0 0 0 0 0 0 0 0 0 0 0 0 0 0 0 0 0 0 0 0 0 0 0 0 0 0 0 0 0 0 0 0 0 0 0 0 0 0 0 0 0 0 0 0 0 0 0 0 0 0 0 0 0 0 0 0 0 0 0 0 0 0 0 0 0 0 0 0 0 0 0 0 0 0 0 0 0 0 0 0 0 0 0 0 0 0 0 0 0 0 0 0 0 0 0 0 0 0 0 0 0 0 0 0 0 0 0 0 0 0 0 0 0 0 0 0 0 0 0 0 0 0 0 0 0 0 0 0 0 0 0 0 0 0 0 0 0 0 0 0 0 0 0 0 0 0 0 0 0 0 0 0 0 0 0 0 0 0 0 0 0 0 0 0 0 0 0 0 0 0 0 0 0 0 0 0 0 0 0 0 0 0 0 0 0 0 0 0 0 0 0 0 0 0 0 0 0 0 0 0 0 0 0 0 0 0 0 0 0 0 0 0 0 0 0 0 0 0 0 0 0 0 0 0 0 0 0 0 0 0 0 0 0 0 0 0 0 0 0 0 0 0 0 0 0 0 0 0 0 0 0 0 0 0 0 0 0 0 0 0 0 0 0 0 0 0 0 0 0 0 0 0 0 0 0 0 0 0 0 0 0 0 0 0 0 0 0 0 0 0 0 0 0 0 0 0 0 0 0 0 0 0 0 0 0 0 0 0 0 0 0 0 0 0 0 0 0 0 0 0 0 0 0 0 0 0 0 0 0 0 0 0 0 0 0 
        </DataArray>
        <DataArray Name="p" NumberOfComponents="1" type="Float32" format="ascii">