<?xml version="1.0"?>
<VTKFile type="StructuredGrid" version="0.1" byte_order="LittleEndian">
  <StructuredGrid WholeExtent="0 32 0 32 0 1">
    <Piece Extent="0 32 0 32 0 1">
      <PointData>
      </PointData>
      <CellData>
        <DataArray Name="vx" NumberOfComponents="1" type="Float32" format="ascii">
0.0218271 0.0222107 0.0225687 0.0228766 0.0230931 0.0231601 0.023075 0.0226619 0.0220999 0.0210158 0.0199224 0.0186904 0.0176707 0.0173607 0.0171822 0.0173564 0.0175776 0.0178703 0.0181514 0.0183508 0.0184973 0.0185729 0.0186255 0.0187207 0.0188797 0.0191435 0.019455 0.0198329 0.020221 0.020627 0.0210303 0.0214303 0.0219027 0.0223393 0.0227491 0.0231319 0.0233943 0.0235315 0.0234927 0.0231023 0.0225323 0.0211222 0.0199117 0.0183432 0.0169699 0.0167238 0.0165943 0.016935 0.0172297 0.0176369 0.0179841 0.0182558 0.0184669 0.0185834 0.0186918 0.018805 0.0189832 0.0192381 0.0195386 0.0198951 0.0202652 0.0206586 0.0210609 0.0214769 0.0219245 0.0223928 0.0228024 0.023215 0.023451 0.0236608 0.023779 0.0236108 0.0234087 0.0215975 0.0200383 0.0174773 0.0155595 0.0160212 0.0162264 0.0168932 0.017215 0.0176717 0.0180027 0.018284 0.0185032 0.0186028 0.0187346 0.0188485 0.0190429 0.0192945 0.0195928 0.0199361 0.0202912 0.0206716 0.0210662 0.0214895 0.0218494 0.0222807 0.0225648 0.0228688 0.0229174 0.0232688 0.0237775 0.0245959 0.0250412 0.0223115 0.0204552 0.016864 0.0139167 0.0151162 0.0161546 0.017335 0.0176233 0.0180196 0.0182116 0.0184208 0.0185997 0.0186723 0.0187823 0.0188496 0.0190582 0.0193049 0.0196137 0.0199534 0.0202973 0.0206629 0.0210383 0.021449 0.0216019 0.0218901 0.0218614 0.0219099 0.0216928 0.0226345 0.0247132 0.02813 0.0302173 0.0256695 0.0218165 0.0130603 0.00776459 0.0129201 0.0165914 0.0190898 0.019248 0.0192426 0.0189207 0.0187567 0.0186731 0.0185604 0.0186591 0.0187729 0.0190484 0.0193157 0.0196442 0.019975 0.0202942 0.020625 0.0209524 0.0213107 0.0211377 0.0211241 0.0205972 0.0203193 0.0201879 0.0231087 0.0289284 0.0375304 0.03765 0.0271086 0.022982 0.0138758 0.00434502 0.00688806 0.0147783 0.020426 0.0211435 0.0208598 0.0198304 0.0191216 0.0186289 0.0183022 0.0182572 0.0184112 0.0189361 0.0192754 0.0196633 0.0199915 0.0202795 0.0205582 0.020805 0.0210548 0.0205761 0.0202844 0.0193891 0.0193184 0.0202022 0.0264188 0.0367858 0.0413044 0.0327338 0.0260947 0.0254327 0.0281224 0.0239648 0.01054 0.015199 0.0225258 0.0237783 0.0230266 0.0210085 0.0190468 0.0176238 0.0168946 0.0169945 0.0178731 0.0189525 0.019408 0.019827 0.020091 0.0202989 0.0204812 0.0206146 0.0207255 0.0200504 0.0195686 0.0186136 0.018881 0.020632 0.0277819 0.035017 0.0203742 0.00851419 0.016689 0.0240778 0.0350701 0.0435372 0.0246829 0.0142175 0.023613 0.0247751 0.0242754 0.0217448 0.0192856 0.0180354 0.0177566 0.0163606 0.0166888 0.0190473 0.0197462 0.0201493 0.0202792 0.020352 0.0204076 0.0204112 0.0203785 0.0198191 0.0194938 0.0188538 0.0196605 0.0202681 0.0265977 0.0161326 -0.000506599 0.00610046 0.0167802 0.0236221 0.0299323 0.0393657 0.0331848 0.0218527 0.0227408 0.024913 0.0250391 0.0235731 0.0237586 0.0231192 0.0237904 0.0222763 0.0199962 0.021361 0.0208398 0.0207656 0.0205452 0.0204163 0.0203184 0.0202204 0.0201239 0.0199936 0.0201528 0.0205846 0.0214586 0.0226912 0.0215266 0.0132202 0.00988358 0.0167064 0.021441 0.0240498 0.027644 0.0334276 0.039209 0.0337802 0.0250296 0.025701 0.0258135 0.0264645 0.0307256 0.0317085 0.0324683 0.0375756 0.0351218 0.0282453 0.0240205 0.0220886 0.0210681 0.0205394 0.0202519 0.0200788 0.0200144 0.0202949 0.0210267 0.0224498 0.0228213 0.0229173 0.0147957 0.0108781 0.0164422 0.0199645 0.0226476 0.0231545 0.0255722 0.029183 0.0410802 0.0442395 0.0325281 0.0271757 0.0264856 0.0265745 0.0294378 0.0291697 0.0312872 0.0336954 0.0281773 0.0244783 0.0224069 0.0212765 0.0205932 0.0201883 0.0199542 0.0198493 0.0199175 0.0203483 0.0215692 0.0235785 0.024126 0.0228752 0.0142917 0.0126348 0.0193983 0.0211307 0.0223354 0.0218286 0.0230529 0.0245732 0.0338975 0.0389809 0.0309493 0.0255697 0.0247897 0.0261798 0.0265594 0.0240813 0.0264689 0.0271751 0.0224741 0.0213493 0.0208221 0.0203743 0.0199414 0.0197119 0.0195678 0.0195381 0.0197162 0.0202896 0.021647 0.0239154 0.024456 0.0229221 0.0150291 0.0145419 0.0207095 0.0211214 0.0216758 0.0206891 0.0211966 0.0216676 0.0285175 0.0320088 0.0262179 0.023086 0.0223043 0.0241057 0.0227207 0.023198 0.0195193 0.0149687 0.0174229 0.0183329 0.0191298 0.0191893 0.0191511 0.0191515 0.0191672 0.0192527 0.0195173 0.0192766 0.0197589 0.0208584 0.0194371 0.0164184 0.00186403 0.00207874 0.0158169 0.017771 0.0195231 0.0189265 0.0195145 0.020455 0.0287957 0.031365 0.0245149 0.0222238 0.0214917 0.022611 0.0210144 0.0211046 0.0173997 0.0134898 0.0165084 0.0173469 0.0180753 0.018333 0.0185046 0.0186801 0.018778 0.0188503 0.0189172 0.0186611 0.018434 0.0188726 0.017194 0.016533 0.00202679 -0.00128213 0.0116044 0.0152292 0.0183019 0.0188905 0.0206513 0.0235503 0.0357883 0.0358613 0.0252483 0.0241971 0.0231794 0.023509 0.0217084 0.0201731 0.0179777 0.0154391 0.0163824 0.0168647 0.0173732 0.017816 0.0181299 0.0184506 0.0186266 0.0187167 0.0186465 0.0178924 0.0169337 0.0163554 0.0156336 0.0166532 0.014673 0.00613726 0.00419388 0.0114111 0.0155932 0.0191341 0.0226665 0.0297318 0.0394495 0.034291 0.0250932 0.0260175 0.0252122 0.0249201 0.0225459 0.0196277 0.0182398 0.0162704 0.0161907 0.0168459 0.0172521 0.017872 0.0182125 0.0185865 0.0187274 0.0187221 0.0183971 0.0180945 0.0169564 0.0155591 0.0158893 0.016682 0.0273139 0.0174671 -0.00132139 0.00515193 0.0124323 0.0214615 0.0280129 0.0359442 0.0291079 0.0200957 0.0237875 0.0262495 0.0270233 0.026637 0.023946 0.0193073 0.017947 0.0159582 0.015294 0.0169922 0.0176724 0.0185655 0.0188679 0.0192176 0.0192879 0.0192211 0.0188301 0.0185941 0.0172686 0.0154721 0.0149804 0.0157857 0.0261302 0.0289428 0.0139088 0.00753755 0.0132134 0.0225758 0.0283226 0.0262195 0.00935147 0.00826911 0.0224152 0.0263532 0.0282684 0.0279877 0.021932 0.0147889 0.0180334 0.0170943 0.0145663 0.0176427 0.0188311 0.0199422 0.0200796 0.0202768 0.0201608 0.0199565 0.0194456 0.0198513 0.0188479 0.0173332 0.0165657 0.0166963 0.02302 0.0335714 0.033395 0.0262377 0.0227679 0.0226907 0.0209996 0.0137259 0.00612853 0.0131522 0.0234138 0.0265805 0.0292017 0.0266794 0.0195091 0.0161062 0.021252 0.018639 0.0149328 0.0187104 0.0209747 0.0222772 0.0221481 0.0219649 0.0215266 0.0211194 0.0205751 0.0209322 0.0202236 0.0191983 0.0184865 0.0179531 0.0207036 0.0269578 0.0326276 0.0306193 0.0239299 0.0189328 0.0146887 0.0113003 0.012286 0.0184075 0.0235987 0.0249198 0.0253013 0.0184045 0.0193726 0.0244042 0.0172781 0.016698 0.0233418 0.024592 0.0251082 0.0248017 0.0240774 0.0234244 0.0227129 0.0221259 0.0215342 0.021983 0.0215349 0.0210047 0.0206681 0.0202396 0.0211028 0.0234924 0.0267448 0.0280119 0.0248282 0.0193619 0.0162401 0.0158048 0.0166238 0.0189313 0.0201982 0.0205338 0.0172509 0.0222868 0.0306598 0.0322282 0.0303585 0.0322896 0.0421579 0.0404685 0.0341905 0.030237 0.0274883 0.0256264 0.0242489 0.0232683 0.0225304 0.0225256 0.0222497 0.0220324 0.0219933 0.0218675 0.0222784 0.0230298 0.0242306 0.0249742 0.0233555 0.0204086 0.0182873 0.0175824 0.0175411 0.0181769 0.0189669 0.0187288 0.0217925 0.0266489 0.0250279 0.0263519 0.0311514 0.0390954 0.0460125 0.040729 0.0338285 0.029804 0.0274152 0.0257015 0.0245134 0.0236103 0.0229624 0.0228118 0.0226217 0.0225483 0.0226177 0.0226538 0.0228648 0.0230839 0.0232439 0.0232142 0.0221321 0.020188 0.0187173 0.0177763 0.0169533 0.0165599 0.0158077 0.0153412 0.0122525 0.0179612 0.0241574 0.0238733 0.0258704 0.0319537 0.0388412 0.0357551 0.0317727 0.0289725 0.0272084 0.0256939 0.0246211 0.023769 0.0231805 0.0227561 0.0226664 0.0226674 0.0227608 0.0228372 0.0229678 0.0229861 0.0228506 0.0224616 0.0214809 0.020102 0.0188354 0.0177988 0.016898 0.0161636 0.0154182 0.0143826 0.0126456 0.00704956 0.0124322 0.0197305 0.0134274 0.0118526 0.0145098 0.0181199 0.0222575 0.0234025 0.0241412 0.0239269 0.0236424 0.0232546 0.0229524 0.0225738 0.0225557 0.0225911 0.0226639 0.0227155 0.0227449 0.022657 0.0223901 0.0219146 0.021093 0.019994 0.0189609 0.0180277 0.0171698 0.016406 0.0159036 0.0155716 0.0171234 0.0148163 0.0150587 0.0208327 0.026094 0.0278889 0.0194365 0.0168006 0.0207529 0.0219282 0.0228548 0.0229386 0.0229172 0.0227679 0.022646 0.0223328 0.0223896 0.0224549 0.0225132 0.0225346 0.0225021 0.0223537 0.0220524 0.021575 0.0208788 0.0200305 0.0191939 0.0184198 0.0177078 0.017064 0.0166072 0.0163439 0.0176412 0.0186227 0.0188279 0.0204142 0.0236479 0.0225721 0.0166773 0.0162769 0.018966 0.020268 0.021321 0.0217762 0.0220679 0.0221944 0.0222718 0.0220796 0.0222004 0.0222976 0.0223552 0.0223608 0.0222903 0.022113 0.0218005 0.0213493 0.0207534 0.0200568 0.019371 0.0187437 0.0181756 0.0177069 0.0173661 0.0172087 0.0177915 0.018692 0.0191157 0.0196098 0.0201856 0.0185474 0.0163293 0.017046 0.0185964 0.0195705 0.0204544 0.0210061 0.0214311 0.021712 0.0219205 0.0219023 0.0220707 0.0221961 0.0222619 0.0222648 0.0221784 0.0219888 0.021674 0.0212417 0.0207006 0.0200989 0.0195106 0.0189918 0.0185524 0.0182421 0.0180251 0.0179717 0.0181674 0.0185826 0.0186631 0.018731 0.0188908 0.0180548 0.017167 0.0175284 0.0183856 0.0191466 0.0199219 0.0205153 0.0210122 0.0213849 0.0216763 0.0217645 0.0219761 0.0221362 0.0222246 0.0222424 0.0221579 0.0219694 0.0216495 0.0212198 0.0206852 0.020103 0.0195382 0.0190524 0.0186766 0.0184516 0.0183201 0.0183618 0.0184683 0.0187147 0.0187504 0.0187008 0.0186562 0.0181207 0.0177121 0.0178953 0.0184267 0.0190137 0.0196665 0.0202305 0.0207374 0.0211495 0.0214894 0.0217149 0.0219612 0.0221568 0.0222756 0.0223192 0.0222467 0.0220631 0.021727 0.021277 0.0207021 0.0200891 0.0194937 0.0189838 0.0186327 0.0184408 0.0183658 0.0184462 0.0185396 0.0187105 0.0187194 0.0186531 0.0185526 0.0182298 0.0180665 0.0181961 0.0185967 0.0190728 0.0196311 0.0201453 0.0206308 0.0210483 0.0214087 0.0217081 0.0219941 0.0222359 0.022402 0.0224902 0.0224476 0.0222839 0.0219254 0.0214405 0.0207649 0.0200447 0.0193307 0.0187231 0.0183686 0.0181757 0.0181507 0.0182621 0.018389 0.0185708 0.0186321 0.0186269 0.0185825 0.0184205 0.0183795 0.0184943 0.018809 0.0191967 0.0196698 0.0201299 0.0205844 0.0209977 0.0213721 0.0217596 0.0220903 0.0223866 0.0226145 0.0227595 0.022759 0.0226162 0.0222225 0.0216784 0.0208405 0.0199883 0.0191048 0.0183378 0.0179635 0.017756 0.0177973 0.0179493 0.0181416 0.0183593 0.0184808 0.0185492 0.018563 0.0185241 0.0185717 0.0187102 0.0189955 0.0193374 0.0197555 0.0201745 0.0206015 0.0210085 0.0213943 
        </DataArray>
        <DataArray Name="vy" NumberOfComponents="1" type="Float32" format="ascii">
0.0106005 0.0107082 0.0109118 0.0111971 0.0116539 0.0121803 0.0128918 0.0135893 0.0142777 0.0148293 0.0147526 0.0147207 0.0137402 0.0129439 0.0120075 0.0113008 0.0107415 0.0102841 0.0100399 0.00978965 0.00974819 0.00967681 0.00976431 0.0098581 0.0100225 0.0101599 0.0102917 0.0103816 0.0104449 0.0104804 0.0105069 0.0105381 0.0101826 0.0102935 0.0105418 0.0108776 0.0114855 0.0121417 0.0131471 0.0140991 0.0151902 0.0161505 0.0160874 0.0161564 0.0143353 0.0131407 0.0118429 0.0110151 0.0103875 0.00994321 0.00976207 0.00958561 0.00962063 0.00958276 0.00966256 0.00970248 0.00979373 0.00986422 0.00994225 0.0100001 0.0100447 0.0100708 0.0100925 0.0101174 0.00974444 0.00984302 0.0101313 0.0105062 0.0112666 0.0120022 0.0133281 0.0144672 0.0162675 0.0175354 0.0174516 0.0178064 0.0153024 0.0134809 0.0117323 0.010759 0.01002 0.00955998 0.00941989 0.00930904 0.00942896 0.00944421 0.00956226 0.00955896 0.00959677 0.00960458 0.00963324 0.00965744 0.0096787 0.00968524 0.00968942 0.00969131 0.00929822 0.00940023 0.00976754 0.0102043 0.0111291 0.0117979 0.0133174 0.0145233 0.0172755 0.0195736 0.0198138 0.0209025 0.0154737 0.0126319 0.0107494 0.0100848 0.00952207 0.00917289 0.00913265 0.00909441 0.00929133 0.00932329 0.00942613 0.00936684 0.0093553 0.00930667 0.00930085 0.00930284 0.00930902 0.00929654 0.00927964 0.0092539 0.00892538 0.00907954 0.00956209 0.0100422 0.0108726 0.0109358 0.011952 0.0129123 0.0185359 0.022488 0.0228763 0.0246711 0.0171143 0.0114778 0.00930916 0.00946305 0.00924453 0.00901905 0.00896905 0.00893137 0.00918879 0.0092786 0.00946291 0.00925646 0.00917678 0.00903949 0.00899344 0.00897459 0.00897116 0.0089424 0.00890833 0.00886495 0.00876353 0.00911891 0.009849 0.0103328 0.0105653 0.00878083 0.00792683 0.00955832 0.0200133 0.0283179 0.0306855 0.0353766 0.0152041 0.0042608 0.00422483 0.00761584 0.00924981 0.00960859 0.00959197 0.00945627 0.00937331 0.00926015 0.0092181 0.00888641 0.00885402 0.00868466 0.00865391 0.00864889 0.00866371 0.00863734 0.00860891 0.00859711 0.00887825 0.00955495 0.0104142 0.0103385 0.00812606 0.00205407 -0.0027717 0.00329235 0.0282256 0.0380201 0.036585 0.0442775 0.0244416 0.000425105 -0.0050742 0.00341283 0.00855097 0.0104248 0.0105363 0.0102467 0.0100091 0.00978259 0.00962132 0.00842624 0.00837264 0.00824627 0.0082866 0.00834518 0.00840716 0.00840877 0.0084195 0.00850632 0.00926367 0.0102637 0.010919 0.00937508 0.00344949 -0.00807396 -0.00892336 0.0169294 0.0361722 0.0344634 0.0282167 0.0351659 0.0332667 0.015318 -0.00851043 -0.000700772 0.00859512 0.0125616 0.0133832 0.0131688 0.0108373 0.00985564 0.00822181 0.00681372 0.00761166 0.00782499 0.00805585 0.0081874 0.00829516 0.00832362 0.00838977 0.00862703 0.00971956 0.0109758 0.0112299 0.00853749 -0.000365735 -0.010582 0.00500505 0.0297139 0.0289485 0.0223027 0.0191402 0.0252601 0.0327842 0.0304062 -0.00606744 -0.00521402 0.00777201 0.0139214 0.0153294 0.0151519 0.0112681 0.0118003 0.0115584 0.00470415 0.0050535 0.0067808 0.00766579 0.00806617 0.00825989 0.00832847 0.00845171 0.0088423 0.00994381 0.0111843 0.0108875 0.00755339 -0.00261034 -0.00706488 0.018508 0.0267172 0.0211027 0.0167566 0.0153577 0.0195975 0.0301796 0.0341021 0.00251308 -0.00567049 0.00614071 0.0134557 0.0136799 0.0128212 0.0111183 0.00950214 0.0121197 0.00778256 0.00849352 0.00882655 0.00870249 0.00863835 0.00858923 0.00854001 0.00861494 0.00903177 0.00952933 0.010342 0.00978464 0.00636784 -0.00107684 -0.00136101 0.0196678 0.0239838 0.0178058 0.0146166 0.0133805 0.0154553 0.0218403 0.027487 0.0105007 0.0019892 0.00816726 0.0134617 0.0121031 0.00912411 0.0111298 0.00567683 0.0104738 0.0129333 0.0146106 0.0119826 0.010274 0.00942544 0.00900572 0.00874398 0.00866044 0.00889436 0.00883942 0.00920844 0.0090136 0.007589 0.00522443 0.00592081 0.0160834 0.0173506 0.014926 0.0134513 0.0126144 0.0132567 0.0153871 0.018118 0.012605 0.0103114 0.0120217 0.0131398 0.0110409 0.00865786 0.011122 0.00191965 0.0149053 0.017481 0.0158384 0.0127335 0.0108455 0.00986596 0.00929417 0.00891559 0.00867641 0.00864722 0.00752235 0.00713389 0.00682219 0.00738055 0.00786782 0.00980333 0.0140986 0.0157372 0.014787 0.0140023 0.0128962 0.0123755 0.0115256 0.0118892 0.0140169 0.0154648 0.0147703 0.0127385 0.0107055 0.0104335 0.0118606 0.00354368 0.0157824 0.0180595 0.0152172 0.012657 0.0109704 0.0100002 0.00934329 0.00888239 0.00845885 0.00805582 0.00670508 0.0058781 0.00606119 0.00933581 0.0140811 0.0163796 0.0082257 0.011381 0.0134509 0.01389 0.0131112 0.0118672 0.00861741 0.00668204 0.0154439 0.0193763 0.0160092 0.0120451 0.010502 0.0106381 0.0131425 0.0103634 0.0154564 0.0154908 0.0140085 0.0121577 0.0108562 0.00993817 0.00930112 0.00883989 0.00834694 0.00770954 0.00647637 0.0055444 0.0065426 0.0120853 0.0234938 0.0270299 -0.00230418 0.0017587 0.0107319 0.01324 0.0131178 0.0107369 0.00321496 0.00014274 0.0193312 0.0244291 0.0175391 0.0121791 0.0110428 0.0121127 0.0144515 0.0126271 0.0157894 0.0145233 0.0133805 0.0116823 0.0105285 0.00963354 0.00907073 0.00868542 0.00825761 0.00759261 0.00691462 0.00591438 0.00708561 0.0124498 0.0279065 0.0362091 -0.00354701 -0.00430367 0.00644564 0.0104213 0.0107928 0.0067854 -0.00578584 -0.00837742 0.0279541 0.0302012 0.0186128 0.0126475 0.012061 0.0141762 0.0167076 0.015436 0.0168016 0.0142941 0.0129673 0.0111751 0.0100958 0.00924578 0.00881052 0.00857528 0.00834395 0.00784978 0.00784467 0.00705285 0.00771109 0.0118466 0.0246191 0.0370064 0.0110306 -0.00584559 -0.000211075 0.00529359 0.00623364 -2.84807e-05 -0.0124913 -0.00600555 0.0361845 0.0309731 0.0180962 0.0130293 0.0137483 0.0172014 0.0183384 0.0159053 0.0177377 0.0140474 0.012449 0.0106986 0.00971868 0.00893469 0.008618 0.00854441 0.00856473 0.00839461 0.00888275 0.00844923 0.00849815 0.0108431 0.0180898 0.0315476 0.0282882 0.00458062 -0.00496924 -0.00575967 -0.00445082 -0.00699178 -0.00780238 0.00846488 0.0325148 0.0234998 0.0152669 0.0122429 0.0157389 0.0212654 0.0232336 0.0191663 0.0192504 0.0131663 0.0104535 0.009322 0.00881854 0.00841761 0.00835239 0.00852077 0.00881424 0.00900029 0.0100172 0.010049 0.0101246 0.0111293 0.0143704 0.0223322 0.0259045 0.0149442 -0.000772126 -0.00994379 -0.00918988 -0.00407143 0.00425048 0.0148452 0.0212057 0.0151297 0.0121557 0.011417 0.02005 0.0294616 0.0213787 0.0133896 0.0215708 0.0142435 0.00850048 0.00867019 0.00876569 0.00871568 0.00868124 0.00890571 0.00931129 0.00973282 0.0106925 0.010958 0.011048 0.0113788 0.0121029 0.0149643 0.0167035 0.0140597 0.00509039 -0.00227398 -0.00308484 0.00185396 0.00722423 0.0106665 0.0128127 0.01036 0.00917555 0.0123933 0.0295548 0.0297929 0.0228174 0.0170836 0.0229844 0.013439 0.00368875 0.00532738 0.0073599 0.00844882 0.00884693 0.00925907 0.00974179 0.010255 0.01134 0.0116797 0.0118918 0.0120947 0.0121365 0.0128978 0.0128174 0.0117966 0.00729703 0.00233009 0.000992835 0.00372774 0.00635429 0.00821398 0.00938426 0.00905013 0.0100217 0.0161767 0.0232428 0.0223178 0.0253461 0.0224488 0.0166906 0.00783494 0.00591085 0.00886614 0.00996935 0.0103303 0.0102154 0.0103063 0.0105527 0.010931 0.01172 0.0119245 0.0120463 0.0121019 0.0118709 0.0118035 0.0110532 0.0100635 0.00782942 0.00537296 0.00457779 0.0058023 0.00672794 0.0077026 0.00848889 0.0089431 0.0102241 0.0134175 0.0174865 0.0229498 0.0209261 0.0163307 0.0101154 0.00470048 0.0124172 0.0152185 0.0139169 0.012824 0.0119205 0.0115085 0.0114021 0.0115114 0.012069 0.0121263 0.0121604 0.0121284 0.0118621 0.0115697 0.0107395 0.00984824 0.00827486 0.00686763 0.00628269 0.00674669 0.00730775 0.00791257 0.0083938 0.00895126 0.00968173 0.00836393 0.013022 0.0251098 0.0174701 0.00924314 0.00310514 0.00485016 0.0189932 0.0200796 0.0169215 0.0147438 0.0133238 0.0125462 0.012175 0.0120496 0.0122754 0.0121789 0.0120992 0.0119751 0.0117041 0.011364 0.0107143 0.010002 0.00906256 0.00820523 0.0078605 0.00813802 0.00842419 0.00883489 0.00932445 0.0101927 0.0125643 0.0121788 0.00711143 0.0191999 0.0181661 0.0111134 -0.00263796 -0.00128734 0.018853 0.0208204 0.0179905 0.0157322 0.014255 0.0133148 0.012758 0.0124362 0.0123684 0.0122032 0.0120698 0.0119106 0.0116671 0.0113616 0.0108689 0.0103508 0.00971726 0.00921036 0.00899367 0.00911605 0.00932529 0.00960163 0.00992272 0.0105937 0.0123088 0.0143746 0.011947 0.0122107 0.0157569 0.0140552 0.00122538 0.000650058 0.0138812 0.0160885 0.0156928 0.0147616 0.0140299 0.0133928 0.0129291 0.0125905 0.0123534 0.0121576 0.0120037 0.0118439 0.0116486 0.0114124 0.0110871 0.0107433 0.0103752 0.0100797 0.00996356 0.0100591 0.0101954 0.0104005 0.0105846 0.0109594 0.0115714 0.0128192 0.0113456 0.0112542 0.00974568 0.00772936 0.00441189 0.00837777 0.0144096 0.0149429 0.0149606 0.0144304 0.0139204 0.0133905 0.0129553 0.0126064 0.012253 0.0120788 0.011944 0.0118175 0.0116812 0.0115273 0.0113282 0.011127 0.0109134 0.0107592 0.0106947 0.0107506 0.0108351 0.0109591 0.0110474 0.0112071 0.0113136 0.0117198 0.010886 0.0103933 0.00996121 0.0092703 0.00758772 0.00915189 0.0121143 0.0130249 0.0135828 0.0135677 0.0133775 0.0130648 0.0127524 0.0124729 0.012068 0.0119412 0.0118508 0.0117809 0.0117184 0.0116583 0.0115797 0.0115067 0.0114194 0.0113658 0.0113304 0.0113618 0.0113768 0.0114142 0.0114092 0.0114108 0.0113028 0.0112457 0.0106062 0.0100891 0.00945719 0.00900448 0.00854741 0.00979915 0.0114518 0.0122565 0.0127874 0.0129061 0.0128419 0.0126542 0.0124384 0.0122336 0.0118538 0.0117835 0.0117484 0.0117459 0.0117633 0.0118017 0.0118333 0.0118778 0.0118877 0.0119121 0.0118812 0.0118761 0.0117967 0.0117198 0.0115942 0.011445 0.0112287 0.0109752 0.0104951 0.0100186 0.00963852 0.0093916 0.00926612 0.00999603 0.0109731 0.0116324 0.0120954 0.0122804 0.0123043 0.0122167 0.0120885 0.0119588 0.0115804 0.0115722 0.0116017 0.0116754 0.0117848 0.0119321 0.0120869 0.0122616 0.012378 0.0124939 0.0124613 0.0124246 0.012217 0.0120145 0.0117557 0.0114801 0.0111956 0.0108491 0.0104713 0.010029 0.00974458 0.00954871 0.00956896 0.0100317 0.0106426 0.0111271 0.0114939 0.0116825 0.0117536 0.0117365 0.0116822 0.0116224 0.0112965 0.01134 0.0114319 0.0115816 0.0117921 0.012056 0.0123518 0.0126659 0.0129044 0.0131137 0.0130676 0.0130089 0.0126417 0.0122924 0.011863 0.0114514 0.0110821 0.0106828 0.0103633 0.00999493 0.00981978 0.00968247 0.0097655 0.0100498 0.0104491 0.0107853 0.0110592 0.0112177 0.0112981 0.0113146 0.0113038 0.0112908 0.0109586 0.0110433 0.0111949 0.0114165 0.0117428 0.0121355 0.012614 0.0131136 0.0135349 0.01392 0.0138638 0.0137909 0.013133 0.0125864 0.0119357 0.0113931 0.0109458 0.0105227 0.0102516 0.00994356 0.00983701 0.00972659 0.00980052 0.00996064 0.0102128 0.0104342 0.0106314 0.0107588 0.010839 0.0108758 0.0108949 0.0109153 
        </DataArray>
        <DataArray Name="vz" NumberOfComponents="1" type="Float32" format="ascii">
0 0 0 0 0 0 0 0 0 0 0 0 0 0 0 0 0 0 0 0 0 0 0 0 0 0 0 0 0 0 0 0 0 0 0 0 0 0 0 0 0 0 0 0 0 0 0 0 0 0 0 0 0 0 0 0 0 0 0 0 0 0 0 0 0 0 0 0 0 0 0 0 0 0 0 0 0 0 0 0 0 0 0 0 0 0 0 0 0 0 0 0 0 0 0 0 0 0 0 0 0 0 0 0 0 0 0 0 0 0 0 0 0 0 0 0 0 0 0 0 0 0 0 0 0 0 0 0 0 0 0 0 0 0 0 0 0 0 0 0 0 0 0 0 0 0 0 0 0 0 0 0 0 0 0 0 0 0 0 0 0 0 0 0 0 0 0 0 0 0 0 0 0 0 0 0 0 0 0 0 0 0 0 0 0 0 0 0 0 0 0 0 0 0 0 0 0 0 0 0 0 0 0 0 0 0 0 0 0 0 0 0 0 0 0 0 0 0 0 0 0 0 0 0 0 0 0 0 0 0 0 0 0 0 0 0 0 0 0 0 0 0 0 0 0 0 0 0 0 0 0 0 0 0 0 0 0 0 0 0 0 0 0 0 0 0 0 0 0 0 0 0 0 0 0 0 0 0 0 0 0 0 0 0 0 0 0 0 0 0 0 0 0 0 0 0 0 0 0 0 0 0 0 0 0 0 0 0 0 0 0 0 0 0 0 0 0 0 0 0 0 0 0 0 0 0 0 0 0 0 0 0 0 0 0 0 0 0 0 0 0 0 0 0 0 0 0 0 0 0 0 0 0 0 0 0 0 0 0 0 0 0 0 0 0 0 0 0 0 0 0 0 0 0 0 0 0 0 0 0 0 0 0 0 0 0 0 0 0 0 0 0 0 0 0 0 0 0 0 0 0 0 0 0 0 0 0 0 0 0 0 0 0 0 0 0 0 0 0 0 0 0 0 0 0 0 0 0 0 0 0 0 0 0 0 0 0 0 0 0 0 0 0 0 0 0 0 0 0 0 0 0 0 0 0 0 0 0 0 0 0 0 0 0 0 0 0 0 0 0 0 0 0 0 0 0 0 0 0 0 0 0 0 0 0 0 0 0 0 0 0 0 0 0 0 0 0 0 0 0 0 0 0 0 0 0 0 0 0 0 0 0 0 0 0 0 0 0 0 0 0 0 0 0 0 0 0 0 0 0 0 0 0 0 0 0 0 0 0 0 0 0 0 0 0 0 0 0 0 0 0 0 0 0 0 0 0 0 0 0 0 0 0 0 0 0 0 0 0 0 0 0 0 0 0 0 0 0 0 0 0 0 0 0 0 0 0 0 0 0 0 0 0 0 0 0 0 0 0 0 0 0 0 0 0 0 0 0 0 0 0 0 0 0 0 0 0 0 0 0 0 0 0 0 0 0 0 0 0 0 0 0 0 0 0 0 0 0 0 0 0 0 0 0 0 0 0 0 0 0 0 0 0 0 0 0 0 0 0 0 0 0 0 0 0 0 0 0 0 0 0 0 0 0 0 0 0 0 0 0 0 0 0 0 0 0 0 0 0 0 0 0 0 0 0 0 0 0 0 0 0 0 0 0 0 0 0 0 0 0 0 0 0 0 0 0 0 0 0 0 0 0 0 0 0 0 0 0 0 0 0 0 0 0 0 0 0 0 0 0 0 0 0 0 0 0 0 0 0 0 0 0 0 0 0 0 0 0 0 0 0 0 0 0 0 0 0 0 0 0 0 0 0 0 0 0 0 0 0 0 0 0 0 0 0 0 0 0 0 0 0 0 0 0 0 0 0 0 0 0 0 0 0 0 0 0 0 0 0 0 0 0 0 0 0 0 0 0 0 0 0 0 0 0 0 0 0 0 0 0 0 0 0 0 0 0 0 0 0 0 0 0 0 0 0 0 0 0 0 0 0 0 0 0 0 0 0 0 0 0 0 0 0 0 0 0 0 0 0 0 0 0 0 0 0 0 0 0 0 0 0 0 0 0 0 0 0 0 0 0 0 0 0 0 0 0 0 0 0 0 0 0 0 0 0 0 0 0 0 0 0 0 0 0 0 0 0 0 0 0 0 0 0 0 0 0 0 0 0 0 0 0 0 0 0 0 0 0 0 0 0 0 0 0 0 0 0 0 0 0 0 0 0 0 0 0 0 0 0 0 0 0 0 0 0 0 0 0 0 0 0 0 0 0 0 0 0 0 0 0 0 0 0 0 0 0 0 0 0 0 0 0 0 0 0 0 0 0 0 0 0 0 0 0 0 0 0 0 0 0 0 0 0 0 0 0 0 0 0 0 0 0 0 0 
        </DataArray>
        <DataArray Name="p" NumberOfComponents="1" type="Float32" format="ascii">