<?xml version="1.0"?>
<VTKFile type="StructuredGrid" version="0.1" byte_order="LittleEndian">
  <StructuredGrid WholeExtent="0 32 0 32 0 1">
    <Piece Extent="0 32 0 32 0 1">
      <PointData>
      </PointData>
      <CellData>
        <DataArray Name="vx" NumberOfComponents="1" type="Float32" format="ascii">
0.022558 0.0230536 0.0235086 0.0239158 0.0241896 0.0242659 0.0241096 0.023504 0.0226601 0.021218 0.0198311 0.0182901 0.0169357 0.0162704 0.0158948 0.0160018 0.0162022 0.0165981 0.0169918 0.0173924 0.0177546 0.0180818 0.018367 0.0186398 0.0189533 0.0193156 0.0197175 0.0201625 0.0206194 0.021097 0.021576 0.022069 0.0226455 0.0232246 0.0237694 0.024302 0.0246837 0.0248832 0.0248283 0.0242289 0.0233237 0.0214692 0.0198097 0.0178703 0.0160787 0.0153555 0.0150605 0.0153822 0.0157223 0.0162943 0.0168034 0.0173006 0.0177213 0.0180783 0.0183763 0.0186658 0.018992 0.0193479 0.0197467 0.0201764 0.0206236 0.0210971 0.0215846 0.0221088 0.0226759 0.0233265 0.0239318 0.0245692 0.0250397 0.0253956 0.0255992 0.0251449 0.0243269 0.0218954 0.0198627 0.0171148 0.0146032 0.0142002 0.0142588 0.0150134 0.0155013 0.0162201 0.0167813 0.0173133 0.0177492 0.0181079 0.0183918 0.0186879 0.0190193 0.0193644 0.0197613 0.0201747 0.0206088 0.0210725 0.0215592 0.0221062 0.0225672 0.0232188 0.0237761 0.0244115 0.0248909 0.0255498 0.0264034 0.0268338 0.026451 0.0230267 0.0202014 0.0163253 0.0125108 0.0123906 0.0134684 0.0149848 0.0156549 0.0164594 0.0169793 0.0174741 0.0178782 0.0182039 0.0184011 0.0186783 0.0190174 0.0193493 0.0197538 0.0201505 0.0205669 0.0210087 0.0214737 0.0220138 0.0222584 0.0228087 0.0231681 0.0237034 0.0242757 0.0257904 0.0287531 0.0312898 0.0312137 0.0254917 0.0210072 0.0139903 0.00744864 0.00883511 0.0123841 0.0158119 0.0168243 0.0175133 0.0176927 0.017812 0.0180036 0.0182012 0.0182837 0.0186556 0.0190274 0.0193503 0.0197623 0.0201273 0.0205074 0.0209007 0.0213094 0.0217964 0.021657 0.0219459 0.0219519 0.0223753 0.0234527 0.0272213 0.0342514 0.0404665 0.038604 0.0283522 0.0223237 0.014601 0.00406001 0.00196886 0.00924794 0.0162955 0.0183669 0.0191141 0.0188096 0.0183226 0.0181343 0.0180509 0.0177732 0.0183192 0.0189332 0.0193322 0.0197941 0.0201157 0.0204344 0.0207396 0.0210402 0.0213969 0.0208421 0.0208279 0.0205168 0.0212235 0.02366 0.0311108 0.0447002 0.0477607 0.0365983 0.0287822 0.0253368 0.0231929 0.0165828 0.0024828 0.0058666 0.0169567 0.0204971 0.021255 0.02029 0.0184634 0.0178063 0.017255 0.0166326 0.0180978 0.0190129 0.0194504 0.0199165 0.0201364 0.0203542 0.0205288 0.0206782 0.0208495 0.0199695 0.0197056 0.0193353 0.0204766 0.0240321 0.0340072 0.0447718 0.0320722 0.0163664 0.020407 0.0247972 0.0304627 0.0369592 0.0180672 0.00678317 0.0184242 0.0220972 0.0232024 0.0220286 0.0192582 0.0185696 0.0182789 0.0161441 0.0173565 0.0192388 0.0199626 0.0203835 0.0203747 0.0203745 0.0203338 0.0202763 0.0202199 0.0191415 0.0187492 0.0181395 0.0191948 0.0199338 0.0276971 0.016422 -0.000672925 0.00511744 0.0151032 0.0234261 0.0305848 0.0407646 0.0383262 0.026066 0.0222372 0.0254311 0.0254994 0.0249018 0.0248138 0.0223471 0.0241675 0.0247744 0.0220014 0.0221723 0.0210267 0.0208553 0.0204619 0.0202556 0.0200289 0.0198021 0.0195602 0.0186677 0.0183177 0.0181383 0.0178949 0.0174692 0.0126345 0.000252386 -0.00109047 0.0104675 0.0181458 0.0235812 0.0291813 0.036703 0.0459208 0.0400839 0.0279871 0.0283866 0.0283925 0.0290563 0.0350222 0.0347989 0.0333438 0.0362543 0.0336664 0.029577 0.0247364 0.0226168 0.0212244 0.020439 0.0198684 0.0194274 0.0190338 0.0184792 0.0184481 0.0189632 0.0182342 0.0169112 0.00893346 0.00254437 0.00745458 0.0145103 0.0197281 0.0229926 0.0277096 0.0335255 0.0466602 0.0494868 0.0378374 0.0317717 0.0296699 0.0283163 0.0317493 0.0306136 0.0306318 0.0316034 0.0259725 0.0243598 0.0221516 0.0211663 0.0203865 0.0198357 0.019356 0.0189559 0.0185935 0.0181623 0.0183178 0.0191211 0.017777 0.0148682 0.00454131 0.00139916 0.0101409 0.0153053 0.0195532 0.0217269 0.0255933 0.0297273 0.0411407 0.0476472 0.0395338 0.0319891 0.0288534 0.0279481 0.0266385 0.024193 0.0266621 0.0289098 0.0241445 0.0219476 0.02151 0.0207071 0.0200357 0.0194636 0.0189519 0.0185281 0.0181515 0.0179459 0.0180509 0.018759 0.0165588 0.0118726 -0.00204342 -0.00256304 0.0103818 0.0147336 0.0189097 0.0206576 0.0241714 0.0277155 0.0379427 0.0462258 0.0395437 0.0311027 0.0275302 0.0271895 0.0243487 0.0250351 0.0225096 0.019309 0.0203849 0.0193346 0.0199131 0.0195104 0.0192257 0.0188836 0.018529 0.0182076 0.0178731 0.0171811 0.0166286 0.0164924 0.0128446 0.00742426 -0.0109549 -0.0117106 0.00621573 0.0121394 0.0172424 0.0192215 0.0228955 0.0269824 0.0391932 0.0477354 0.0393549 0.0302952 0.026586 0.0256779 0.0230902 0.0236529 0.0201906 0.0162358 0.0184869 0.0185095 0.0190915 0.0188711 0.0187139 0.0185034 0.0182107 0.0178907 0.0174193 0.0170488 0.0161548 0.0157872 0.0128981 0.0105959 -0.00438075 -0.00940581 0.00349305 0.011111 0.0163809 0.0190049 0.0231837 0.0284346 0.0434109 0.0460687 0.0337541 0.0290653 0.0261316 0.0253021 0.0230675 0.0221974 0.0200472 0.0177285 0.0184732 0.0182926 0.0185405 0.0184679 0.018429 0.0183834 0.0182051 0.0179632 0.0174731 0.0169432 0.0158356 0.015002 0.0140905 0.0141974 0.010905 -0.000689784 -0.00257829 0.00943427 0.0147455 0.0193009 0.0242504 0.032132 0.0432968 0.0369163 0.0248668 0.0266 0.0253216 0.0248017 0.0228512 0.0214653 0.0202331 0.0187673 0.018682 0.0185478 0.0185779 0.0185924 0.0185508 0.0185713 0.0184237 0.0181876 0.017643 0.0177176 0.016782 0.0155887 0.0166698 0.0177851 0.0295307 0.0166432 -0.00180286 0.00837248 0.013502 0.0206246 0.0261452 0.034243 0.0300027 0.0201379 0.0201952 0.024246 0.0252213 0.0243072 0.0225635 0.0208112 0.0197923 0.0190454 0.0186751 0.0189796 0.0191276 0.0193017 0.0192423 0.0192761 0.0191394 0.018934 0.0184754 0.018734 0.0179462 0.0168666 0.0180466 0.0209527 0.0350252 0.0427592 0.0294101 0.0197781 0.0198533 0.0211792 0.022644 0.0223533 0.00375097 -0.000110068 0.0154473 0.020943 0.0238462 0.0222158 0.0193777 0.0180766 0.0204723 0.0212373 0.0196584 0.0199567 0.0202151 0.0204424 0.0202727 0.0202106 0.0200095 0.0197949 0.0193978 0.0202418 0.0197484 0.0189138 0.0193861 0.0213643 0.0297565 0.0430336 0.0399533 0.0300378 0.0260071 0.0211386 0.0177013 0.0103328 -0.00130196 0.00404296 0.0173212 0.0214041 0.0239889 0.0164755 0.0134244 0.019044 0.0221304 0.0242428 0.0235262 0.0222112 0.0220581 0.022317 0.0220035 0.0217295 0.0213597 0.0210575 0.0207187 0.0214222 0.0212038 0.0207486 0.0209233 0.0216529 0.0254344 0.0329847 0.0347362 0.0276696 0.0220428 0.0212388 0.0170637 0.0103693 0.00743138 0.0124215 0.0187722 0.0196849 0.0171189 0.00489074 0.00664446 0.0169394 0.0153693 0.0199231 0.0280448 0.0274652 0.0250479 0.0241885 0.0234164 0.0228636 0.0223732 0.0220104 0.0217184 0.0225318 0.0225058 0.0224086 0.0226399 0.0229617 0.0243263 0.0273627 0.0289474 0.0263101 0.0229235 0.0210323 0.0176867 0.0146395 0.0137946 0.0164208 0.0191192 0.0218479 0.0195639 0.0309227 0.0385477 0.0293693 0.0250825 0.0198881 0.0226997 0.026458 0.0276647 0.0265873 0.0253982 0.024472 0.0236822 0.0231169 0.0227548 0.0230467 0.0231368 0.023251 0.0235824 0.0238544 0.024418 0.0253892 0.0258108 0.0249234 0.0230934 0.0210367 0.0186693 0.0171313 0.0167482 0.0181183 0.0211231 0.024636 0.0352326 0.0523786 0.0461455 0.0315019 0.0290398 0.0274613 0.0289038 0.0290614 0.0283082 0.026534 0.0254085 0.0245587 0.0239184 0.023441 0.0231672 0.0233739 0.0234729 0.0236434 0.0239628 0.0242129 0.0244631 0.0246628 0.0243968 0.02349 0.0221484 0.0206252 0.0189392 0.0176048 0.0166965 0.0169102 0.0174514 0.0196056 0.0212115 0.0339597 0.0383869 0.0289651 0.023554 0.0207203 0.0250519 0.0270959 0.027356 0.026351 0.0255938 0.0248353 0.0242341 0.0237498 0.0234798 0.0232921 0.023436 0.0236239 0.0238935 0.0240884 0.0242147 0.0241604 0.0237401 0.0229005 0.0217181 0.0203645 0.0189114 0.0176362 0.0165919 0.0158966 0.0153198 0.0141589 0.0114422 0.00433921 0.0114258 0.0201734 0.0122112 0.00780323 0.0150974 0.0208592 0.0213435 0.0226832 0.0233608 0.0234536 0.023446 0.023315 0.0232708 0.0231689 0.0233099 0.0234709 0.0236579 0.0237686 0.0237756 0.0235961 0.0231215 0.0223426 0.0213187 0.020143 0.0189203 0.0177685 0.0167397 0.0158424 0.015182 0.0141865 0.0139464 0.0072294 0.00612407 0.0159925 0.0245979 0.0303498 0.0251946 0.0209501 0.0218523 0.0223759 0.0230253 0.0230581 0.0231208 0.0230733 0.0231023 0.0229155 0.0230958 0.0232552 0.023392 0.0234422 0.0233793 0.0231425 0.0226768 0.0219814 0.0210902 0.0200851 0.0190388 0.018024 0.0170833 0.016151 0.0153939 0.0144743 0.0146561 0.0131975 0.0120771 0.0156742 0.0240004 0.0283858 0.0225266 0.0191728 0.0201498 0.0208108 0.0216444 0.0220001 0.0223485 0.0225457 0.0227432 0.0227043 0.0229061 0.0230643 0.0231685 0.0231795 0.0230691 0.0228029 0.0223452 0.0217095 0.0209207 0.0200434 0.0191449 0.0182764 0.0174806 0.0167105 0.0160992 0.0154103 0.0154978 0.015202 0.0153878 0.0172294 0.0202583 0.0212748 0.0190093 0.0188443 0.0198218 0.0203888 0.0210957 0.0215014 0.0219129 0.0222054 0.022477 0.0225286 0.0227635 0.022937 0.0230353 0.0230333 0.0229034 0.0226264 0.0221755 0.0215747 0.0208386 0.0200396 0.0192283 0.0184613 0.0177841 0.017171 0.0167006 0.0162356 0.0161546 0.0160973 0.0162448 0.0171575 0.0188116 0.0196232 0.01879 0.0187904 0.0193558 0.0198433 0.0205015 0.0210029 0.0215003 0.0218942 0.0222425 0.0224159 0.0226822 0.0228809 0.0229936 0.023001 0.0228708 0.0225937 0.0221377 0.0215414 0.0208035 0.0200162 0.0192227 0.0184945 0.0178924 0.0174033 0.0170765 0.0168287 0.0168075 0.0168474 0.0170559 0.0175723 0.0183118 0.0186965 0.0184833 0.0187098 0.0191806 0.0196574 0.0202536 0.020767 0.0212752 0.0217064 0.0220914 0.0223793 0.0226834 0.0229198 0.0230664 0.023102 0.0229872 0.0227156 0.0222398 0.0216182 0.0208232 0.0199923 0.0191531 0.0183972 0.0178168 0.0173868 0.0171523 0.0170338 0.0170764 0.0171917 0.0173943 0.0177328 0.0181836 0.0184773 0.0185055 0.018738 0.0191368 0.0195862 0.0201328 0.0206434 0.0211522 0.0216058 0.0220192 0.0223949 0.0227484 0.0230402 0.0232465 0.0233364 0.0232592 0.0230069 0.0224971 0.0218216 0.0208971 0.019945 0.0189682 0.0181044 0.0175099 0.0171041 0.0169569 0.016943 0.0170799 0.0172805 0.0175323 0.0178241 0.0181436 0.0183858 0.0185409 0.0188105 0.0191882 0.0196156 0.0201155 0.0206048 0.0210997 0.0215614 0.0219977 0.0224665 0.0228827 0.0232465 0.0235376 0.0237041 0.023687 0.023464 0.0229083 0.0221512 0.0210212 0.0198968 0.0187151 0.0176652 0.0170163 0.0166087 0.0165531 0.0166316 0.0168777 0.0171655 0.01748 0.0177932 0.0181006 0.0183613 0.0185918 0.0188857 0.0192547 0.0196677 0.020137 0.0206093 0.0210944 0.0215645 0.0220268 
        </DataArray>
        <DataArray Name="vy" NumberOfComponents="1" type="Float32" format="ascii">
0.0100034 0.0101368 0.0104117 0.0107923 0.0114089 0.0121288 0.0130776 0.0140295 0.0149055 0.0155887 0.0155515 0.0154811 0.0144693 0.0134959 0.0123122 0.0114503 0.0107123 0.0102168 0.00990815 0.00971715 0.00964951 0.00960728 0.00961956 0.00963575 0.00972061 0.00977428 0.00984429 0.0098775 0.00990019 0.00990183 0.00990908 0.0099282 0.00947875 0.00961131 0.00993593 0.0103931 0.0111995 0.0121447 0.0134698 0.0148495 0.0161585 0.0172224 0.0171408 0.017166 0.0154752 0.0139935 0.012298 0.0111998 0.0102958 0.00975069 0.00945147 0.00930094 0.00927925 0.00927832 0.00931549 0.009315 0.00936892 0.00938131 0.00941638 0.00942404 0.00942844 0.00941453 0.00940789 0.00940979 0.0088916 0.00899211 0.00933824 0.00984418 0.010819 0.0119534 0.0136842 0.0155437 0.0175952 0.0191826 0.0191458 0.0193136 0.0169753 0.0145931 0.0122207 0.0108555 0.00975839 0.0091695 0.00888486 0.00881445 0.00886897 0.00896017 0.00903981 0.00901621 0.00904852 0.0090152 0.00901975 0.00899921 0.00898024 0.00893802 0.00889895 0.00885817 0.00827777 0.00834572 0.00872342 0.0092773 0.0103944 0.0116262 0.0136798 0.0163084 0.019354 0.0218105 0.0216882 0.022441 0.0182709 0.014484 0.0113568 0.010046 0.00900874 0.00851414 0.00830872 0.00835807 0.00843812 0.00864722 0.00871233 0.00867837 0.00870583 0.00863155 0.0086176 0.00857519 0.00853716 0.00846369 0.00838365 0.00828895 0.00769684 0.00775488 0.00815824 0.00869794 0.00966456 0.0104451 0.0122659 0.0155258 0.0211834 0.0255449 0.0259881 0.0271569 0.0209804 0.0136529 0.00942422 0.00878603 0.00816971 0.00793388 0.00781652 0.00800668 0.00810161 0.00851378 0.00855384 0.00839768 0.0083866 0.00824821 0.00822326 0.00817053 0.00812354 0.00802199 0.00789813 0.00774918 0.00729152 0.00741357 0.00784989 0.008135 0.00824008 0.00721713 0.00783347 0.0145149 0.025254 0.0320833 0.032898 0.0355224 0.023571 0.0101101 0.00411713 0.00581306 0.00713793 0.00772514 0.00784593 0.00812398 0.00783591 0.00853117 0.00810343 0.0079799 0.00806506 0.00790562 0.007893 0.00783649 0.00778734 0.00766341 0.00750612 0.00733293 0.00716982 0.00745311 0.00777778 0.00725631 0.0048755 -0.000139642 -0.0010793 0.0110376 0.0326581 0.0419266 0.0401804 0.0455892 0.0338815 0.00778241 -0.00556184 7.58511e-06 0.00518229 0.00776926 0.00854297 0.00905531 0.00818134 0.00912165 0.00814008 0.00728701 0.00730946 0.00727017 0.00740987 0.00746725 0.00748683 0.00739132 0.00724394 0.00711542 0.00733923 0.00769588 0.00745649 0.0048383 -0.00183635 -0.014214 -0.0108052 0.0248189 0.0443578 0.0434796 0.0380684 0.0438677 0.0441278 0.0236381 -0.0118275 -0.00872859 0.00242316 0.00788634 0.0101741 0.0106998 0.00826828 0.0108967 0.00633987 0.00589355 0.00686827 0.0071046 0.00737549 0.00744935 0.00746291 0.00735788 0.00721692 0.00716468 0.00769897 0.00811259 0.00707661 0.00273871 -0.00839522 -0.0206051 0.00249694 0.0399329 0.0419778 0.0337861 0.0293566 0.0344535 0.0435713 0.0387131 -0.00713885 -0.0133976 0.000601761 0.00857214 0.0125707 0.0137145 0.00838491 0.011753 0.00850968 0.00488568 0.00434878 0.00582481 0.00685386 0.00731181 0.00746852 0.00743334 0.007343 0.00740433 0.00820557 0.00869966 0.00727461 0.00284693 -0.0085512 -0.0128049 0.0178231 0.0347411 0.0300373 0.0250972 0.0229361 0.0268813 0.0370603 0.0391638 0.00528628 -0.0106708 -0.000845831 0.00767571 0.0103378 0.0121055 0.00992388 0.00819212 0.0090847 0.00770114 0.00847907 0.00861979 0.00831952 0.00818109 0.00802876 0.007866 0.00773528 0.00785075 0.00832727 0.00859194 0.00719155 0.00322112 -0.00475566 -0.00436966 0.0191953 0.0289672 0.0235271 0.0202461 0.0186037 0.0208604 0.0274297 0.0324539 0.0137508 -0.00304143 0.00160665 0.00786399 0.00754908 0.00709382 0.0119959 0.00802713 0.0106965 0.0100555 0.013346 0.0119344 0.0101068 0.00921846 0.00870636 0.0083593 0.00811957 0.00812652 0.00835812 0.00839157 0.00752517 0.00539208 0.00125727 0.00279564 0.0182208 0.0215141 0.0179626 0.0163244 0.0152382 0.0160767 0.0187936 0.0220729 0.0158673 0.00560203 0.00750844 0.0101695 0.00871845 0.00818631 0.0125059 0.00459292 0.0146409 0.0140452 0.0138757 0.0122208 0.0105549 0.00972277 0.00919999 0.00882917 0.00853879 0.00840509 0.0080172 0.00768977 0.00739633 0.00779657 0.00774969 0.0100196 0.0130824 0.0152787 0.0142042 0.0137287 0.0128016 0.0124998 0.0123226 0.0134675 0.015759 0.0128105 0.0127802 0.0118933 0.0100903 0.0105094 0.0124174 0.00405509 0.0143528 0.0166139 0.0150742 0.0128679 0.0112592 0.0103029 0.00968009 0.00923544 0.00884477 0.00847815 0.00812162 0.00776816 0.00872384 0.0126331 0.0185814 0.0195963 0.00355557 0.0054362 0.00922582 0.0104675 0.0101535 0.00873445 0.00544516 0.00325868 0.0135927 0.021868 0.018984 0.0141319 0.0116641 0.0110906 0.0135431 0.0104152 0.0153033 0.0150609 0.0141587 0.0124514 0.0113205 0.0104796 0.00994478 0.0095599 0.00920323 0.00875124 0.00864482 0.00845208 0.01074 0.0172912 0.0302133 0.0309273 -0.00542163 -0.00778567 0.00297256 0.00671365 0.00738821 0.00453755 -0.00332981 -0.00730763 0.0149999 0.031561 0.0246581 0.0165001 0.0133429 0.0126963 0.0146434 0.0125052 0.0156223 0.0147783 0.0140671 0.0125409 0.0115024 0.0106443 0.0101428 0.00982804 0.00957648 0.00918497 0.00941939 0.0092447 0.0118737 0.0185531 0.0356249 0.0406928 -0.00543522 -0.0160047 -0.00341158 0.00249072 0.00369152 -0.0010234 -0.0140727 -0.0154936 0.0241616 0.0383227 0.0266154 0.0177771 0.0148514 0.0143521 0.0163274 0.0150615 0.0163467 0.0148625 0.0139143 0.0124023 0.0113952 0.010573 0.0101633 0.00998863 0.00993507 0.00973407 0.0103925 0.0103717 0.012366 0.0180475 0.0328409 0.04504 0.0124445 -0.0204524 -0.0138063 -0.00385304 -0.0019207 -0.00894481 -0.0221839 -0.0145285 0.0360217 0.0403194 0.0257285 0.018013 0.0159589 0.0158119 0.0171035 0.0156031 0.0169382 0.015351 0.0141088 0.0126237 0.011552 0.0107059 0.0103003 0.010219 0.0103477 0.0104188 0.0111731 0.0112997 0.012227 0.0157739 0.0240053 0.037781 0.0273531 -0.0100964 -0.0154891 -0.00941621 -0.00805006 -0.014241 -0.017895 -0.000179665 0.0349756 0.0319851 0.0220251 0.0174278 0.0185407 0.017334 0.0192481 0.0167855 0.0167287 0.0150309 0.0133165 0.0120507 0.0111878 0.0105236 0.010222 0.0102872 0.0105989 0.0109403 0.0118984 0.0121831 0.0125405 0.0139503 0.0169183 0.0238489 0.0208111 0.00240247 -0.00774653 -0.00550597 -0.00502682 -0.0103696 -0.00528336 0.0091911 0.0232547 0.0203342 0.0172768 0.0162379 0.0201823 0.0187621 0.0168246 0.0133773 0.0177331 0.01745 0.0136294 0.0121885 0.0115404 0.0110071 0.0106298 0.0106668 0.0109984 0.0114695 0.012195 0.0125595 0.0126935 0.01308 0.0134975 0.0155208 0.0145055 0.00584574 -0.00144836 -0.000128917 -0.00037702 -0.00356368 0.00127675 0.00778256 0.0150274 0.014963 0.0156129 0.0227876 0.034017 0.0117531 0.0104543 0.0104688 0.0125366 0.016546 0.0159147 0.012056 0.0112941 0.0110368 0.0108032 0.0108902 0.0112233 0.0117197 0.0124507 0.0127924 0.0128923 0.0129386 0.0125298 0.0125392 0.0112388 0.00765897 0.00401406 0.00161389 0.000536631 0.000907485 0.00383411 0.00711019 0.0113264 0.0132085 0.0182982 0.0291153 0.027427 0.00622943 0.0114198 0.0132727 0.00829809 0.0110572 0.0151779 0.013554 0.0127789 0.0122087 0.011692 0.011559 0.0117019 0.0120582 0.0124711 0.0126565 0.0126383 0.0124972 0.0118577 0.0111749 0.00971883 0.00748072 0.00537506 0.00438407 0.00374758 0.00359818 0.00491497 0.00652257 0.00889863 0.0101992 0.013055 0.0170107 0.0158281 0.017402 0.019796 0.0181103 0.0117774 0.00977609 0.0115417 0.0141492 0.0139913 0.0132577 0.012523 0.0121908 0.012123 0.0122694 0.0125142 0.0125533 0.0124584 0.0122542 0.0116628 0.0109408 0.00968515 0.00814691 0.00664383 0.00564951 0.00507827 0.0050861 0.00571193 0.00640369 0.00716153 0.00711477 0.00594947 0.00191346 0.00906376 0.0301254 0.0267816 0.0180273 0.0101225 0.0119956 0.0125736 0.016303 0.0156354 0.014362 0.0133328 0.0127904 0.0125332 0.012485 0.0124721 0.0123675 0.0121844 0.0119233 0.0114015 0.0107629 0.00980515 0.00874183 0.00773609 0.00709862 0.00672563 0.00671217 0.00699894 0.00732584 0.00778748 0.00782272 0.00838976 0.00403932 1.2116e-05 0.0246268 0.0326523 0.0276935 0.00851454 0.0019021 0.00896898 0.0157441 0.0155893 0.0146318 0.0137358 0.013168 0.0128055 0.0125999 0.0123758 0.0122141 0.0120094 0.0117541 0.0113333 0.0108338 0.0101322 0.00940415 0.00868855 0.00821255 0.00792699 0.00790732 0.00804383 0.00820985 0.00841801 0.00867892 0.00965027 0.0101402 0.00817929 0.0146753 0.0264723 0.0286042 0.00908873 -0.000561054 0.00816846 0.0133329 0.0139457 0.0137487 0.0134057 0.0130611 0.0127791 0.0125534 0.0122434 0.0120496 0.0118459 0.011619 0.011302 0.0109405 0.0104725 0.0100037 0.00955612 0.0092584 0.00907824 0.00907661 0.00913894 0.00924457 0.00932842 0.00948163 0.00990198 0.0108019 0.00996036 0.0136583 0.0157284 0.0154583 0.00865167 0.00843154 0.0126154 0.0137375 0.0139716 0.0136925 0.0134008 0.013042 0.0127335 0.012463 0.0120388 0.0118764 0.0117183 0.0115549 0.0113475 0.0111211 0.0108362 0.0105624 0.0102912 0.010115 0.00999515 0.00999155 0.010012 0.0100777 0.0101086 0.0102254 0.0103729 0.0109923 0.0108347 0.0122742 0.0137764 0.0139954 0.0104843 0.00938278 0.0113682 0.0121299 0.012746 0.0128412 0.0128204 0.0126344 0.0124309 0.0122208 0.0117996 0.0116819 0.0115846 0.0114998 0.0114073 0.0113159 0.0112008 0.0110966 0.0109818 0.0109148 0.0108417 0.010835 0.0107962 0.0107958 0.010743 0.0107554 0.0106991 0.0109334 0.0107154 0.011399 0.0115748 0.0115811 0.0103282 0.0104151 0.0115173 0.0119528 0.0123955 0.0124561 0.0124345 0.0122818 0.0121142 0.0119428 0.0115225 0.011469 0.0114478 0.0114539 0.0114802 0.0115239 0.0115655 0.0116149 0.011631 0.011657 0.0116068 0.0115815 0.01146 0.0113632 0.0112028 0.0110993 0.0109462 0.0109632 0.01079 0.0110033 0.0110674 0.011072 0.0104413 0.010393 0.0109814 0.0113218 0.0117007 0.0118239 0.0118679 0.0118001 0.0117062 0.0116031 0.0112037 0.0112142 0.011274 0.0113777 0.0115333 0.011723 0.0119354 0.0121527 0.0123116 0.012446 0.0124091 0.0123628 0.0121143 0.0118855 0.0115688 0.0113154 0.0110436 0.0108826 0.0106578 0.0106301 0.0105221 0.0104717 0.0102448 0.0103424 0.010713 0.0109566 0.0112157 0.0113155 0.0113591 0.0113271 0.0112781 0.0112274 0.0108585 0.010926 0.011065 0.0112658 0.0115595 0.0119049 0.0123104 0.0127144 0.0130405 0.0132978 0.0132659 0.0131989 0.0127884 0.0123907 0.0118684 0.0114432 0.0110406 0.0107508 0.0105015 0.0103685 0.0102652 0.010206 0.0101076 0.0101611 0.0103781 0.0105438 0.0107246 0.0108103 0.0108578 0.0108546 0.0108418 0.0108332 0.0104545 0.0105667 0.0107814 0.0110787 0.0115287 0.0120542 0.0127016 0.0133518 0.0139006 0.0143439 0.0143052 0.0142274 0.0135369 0.0129029 0.0120975 0.0114785 0.010928 0.0105324 0.0102522 0.0100671 0.0099651 0.00989963 0.00986998 0.00990915 0.0100438 0.0101476 0.0102643 0.0103245 0.0103629 0.01037 0.0103767 0.0103932 
        </DataArray>
        <DataArray Name="vz" NumberOfComponents="1" type="Float32" format="ascii">
0 0 0 0 0 0 0 0 0 0 0 0 0 0 0 0 0 0 0 0 0 0 0 0 0 0 0 0 0 0 0 0 0 0 0 0 0 0 0 0 0 0 0 0 0 0 0 0 0 0 0 0 0 0 0 0 0 0 0 0 0 0 0 0 0 0 0 0 0 0 0 0 0 0 0 0 0 0 0 0 0 0 0 0 0 0 0 0 0 0 0 0 0 0 0 0 0 0 0 0 0 0 0 0 0 0 0 0 0 0 0 0 0 0 0 0 0 0 0 0 0 0 0 0 0 0 0 0 0 0 0 0 0 0 0 0 0 0 0 0 0 0 0 0 0 0 0 0 0 0 0 0 0 0 0 0 0 0 0 0 0 0 0 0 0 0 0 0 0 0 0 0 0 0 0 0 0 0 0 0 0 0 0 0 0 0 0 0 0 0 0 0 0 0 0 0 0 0 0 0 0 0 0 0 0 0 0 0 0 0 0 0 0 0 0 0 0 0 0 0 0 0 0 0 0 0 0 0 0 0 0 0 0 0 0 0 0 0 0 0 0 0 0 0 0 0 0 0 0 0 0 0 0 0 0 0 0 0 0 0 0 0 0 0 0 0 0 0 0 0 0 0 0 0 0 0 0 0 0 0 0 0 0 0 0 0 0 0 0 0 0 0 0 0 0 0 0 0 0 0 0 0 0 0 0 0 0 0 0 0 0 0 0 0 0 0 0 0 0 0 0 0 0 0 0 0 0 0 0 0 0 0 0 0 0 0 0 0 0 0 0 0 0 0 0 0 0 0 0 0 0 0 0 0 0 0 0 0 0 0 0 0 0 0 0 0 0 0 0 0 0 0 0 0 0 0 0 0 0 0 0 0 0 0 0 0 0 0 0 0 0 0 0 0 0 0 0 0 0 0 0 0 0 0 0 0 0 0 0 0 0 0 0 0 0 0 0 0 0 0 0 0 0 0 0 0 0 0 0 0 0 0 0 0 0 0 0 0 0 0 0 0 0 0 0 0 0 0 0 0 0 0 0 0 0 0 0 0 0 0 0 0 0 0 0 0 0 0 0 0 0 0 0 0 0 0 0 0 0 0 0 0 0 0 0 0 0 0 0 0 0 0 0 0 0 0 0 0 0 0 0 0 0 0 0 0 0 0 0 0 0 0 0 0 0 0 0 0 0 0 0 0 0 0 0 0 0 0 0 0 0 0 0 0 0 0 0 0 0 0 0 0 0 0 0 0 0 0 0 0 0 0 0 0 0 0 0 0 0 0 0 0 0 0 0 0 0 0 0 0 0 0 0 0 0 0 0 0 0 0 0 0 0 0 0 0 0 0 0 0 0 0 0 0 0 0 0 0 0 0 0 0 0 0 0 0 0 0 0 0 0 0 0 0 0 0 0 0 0 0 0 0 0 0 0 0 0 0 0 0 0 0 0 0 0 0 0 0 0 0 0 0 0 0 0 0 0 0 0 0 0 0 0 0 0 0 0 0 0 0 0 0 0 0 0 0 0 0 0 0 0 0 0 0 0 0 0 0 0 0 0 0 0 0 0 0 0 0 0 0 0 0 0 0 0 0 0 0 0 0 0 0 0 0 0 0 0 0 0 0 0 0 0 0 0 0 0 0 0 0 0 0 0 0 0 0 0 0 0 0 0 0 0 0 0 0 0 0 0 0 0 0 0 0 0 0 0 0 0 0 0 0 0 0 0 0 0 0 0 0 0 0 0 0 0 0 0 0 0 0 0 0 0 0 0 0 0 0 0 0 0 0 0 0 0 0 0 0 0 0 0 0 0 0 0 0 0 0 0 0 0 0 0 0 0 0 0 0 0 0 0 0 0 0 0 0 0 0 0 0 0 0 0 0 0 0 0 0 0 0 0 0 0 0 0 0 0 0 0 0 0 0 0 0 0 0 0 0 0 0 0 0 0 0 0 0 0 0 0 0 0 0 0 0 0 0 0 0 0 0 0 0 0 0 0 0 0 0 0 0 0 0 0 0 0 0 0 0 0 0 0 0 0 0 0 0 0 0 0 0 0 0 0 0 0 0 0 0 0 0 0 0 0 0 0 0 0 0 0 0 0 0 0 0 0 0 0 0 0 0 0 0 0 0 0 0 0 0 0 0 0 0 0 0 0 0 0 0 0 0 0 0 0 0 0 0 0 0 0 0 0 0 0 0 0 0 0 0 0 0 0 0 0 0 0 0 0 0 0 0 0 0 0 0 0 0 0 0 0 0 0 0 0 0 0 0 0 0 0 0 0 0 0 0 0 0 0 0 0 0 0 0 0 0 0 0 0 0 0 0 0 0 0 0 
        </DataArray>
        <DataArray Name="p" NumberOfComponents="1" type="Float32" format="ascii">