<?xml version="1.0"?>
<VTKFile type="StructuredGrid" version="0.1" byte_order="LittleEndian">
  <StructuredGrid WholeExtent="0 32 0 32 0 1">
    <Piece Extent="0 32 0 32 0 1">
      <PointData>
      </PointData>
      <CellData>
        <DataArray Name="vx" NumberOfComponents="1" type="Float32" format="ascii">
0.0232018 0.0237827 0.024323 0.0247997 0.0251345 0.0252056 0.0250092 0.0242647 0.0231829 0.0215116 0.0197831 0.0179688 0.0163572 0.0153701 0.0148252 0.0148283 0.0150026 0.0154518 0.0159311 0.0164809 0.0170253 0.0175626 0.0180613 0.0185298 0.0189971 0.0194727 0.0199643 0.0204753 0.0209926 0.0215294 0.0220703 0.0226361 0.0232891 0.0239782 0.0246467 0.0252853 0.0257865 0.0260156 0.0259639 0.0252209 0.0240237 0.0219357 0.019766 0.0174514 0.015367 0.0142313 0.0137932 0.0140405 0.0144186 0.0150944 0.0157398 0.0164119 0.0170193 0.0175729 0.0180518 0.0185295 0.0189823 0.0194499 0.019934 0.020432 0.0209454 0.0214849 0.0220448 0.0226554 0.0233126 0.0241009 0.0248835 0.0256793 0.0263682 0.026821 0.0271105 0.0264995 0.0252205 0.0225269 0.0197441 0.0166468 0.0138649 0.0127285 0.0126297 0.0133677 0.0139985 0.0149051 0.0156804 0.0164269 0.0170776 0.0176244 0.0180655 0.0185618 0.0189834 0.019436 0.0199038 0.0203803 0.0208802 0.0214116 0.0219783 0.0226234 0.0231756 0.0239997 0.0248101 0.0256937 0.0265474 0.0274381 0.0285087 0.0286854 0.0276747 0.0240842 0.0200527 0.0155678 0.0114948 0.0103189 0.0112562 0.0129233 0.0139268 0.0150421 0.0158695 0.0166022 0.0172435 0.0177276 0.0180701 0.0185848 0.0189664 0.0194108 0.0198647 0.0203133 0.0207867 0.0212889 0.021835 0.0224794 0.0227939 0.0235493 0.0242574 0.0251744 0.0263756 0.0283623 0.031744 0.0337267 0.0325348 0.0268743 0.0204901 0.0134019 0.00721434 0.00599825 0.00896947 0.0128808 0.014603 0.0158831 0.0165667 0.0170085 0.0175335 0.0177806 0.0179702 0.018672 0.0189903 0.0194231 0.0198388 0.0202339 0.0206554 0.0210963 0.0215815 0.022171 0.0220892 0.0226319 0.0231118 0.0241335 0.0261044 0.0306857 0.0380407 0.042573 0.0400803 0.030848 0.0217647 0.013208 0.00378338 -0.000865605 0.00479712 0.0124805 0.0157158 0.0173601 0.0177696 0.0176199 0.0178063 0.0176217 0.0175131 0.0185065 0.0188903 0.0194299 0.0198532 0.0201857 0.0205212 0.0208469 0.021206 0.0216522 0.0210438 0.0212929 0.021514 0.0229766 0.0264822 0.0351774 0.0489691 0.0509635 0.0399621 0.0304008 0.025609 0.0215668 0.0131943 -0.0016499 -0.000823793 0.0117766 0.0171983 0.0193796 0.0194823 0.0183072 0.0183658 0.0169907 0.016419 0.0187184 0.019071 0.0196142 0.0199421 0.0201226 0.020322 0.0204845 0.0206642 0.020893 0.0198567 0.0198058 0.0199272 0.0219612 0.0266732 0.0395397 0.0503251 0.0377677 0.0212251 0.0211016 0.0248977 0.0279191 0.0302889 0.0121548 0.000914068 0.0126054 0.018844 0.021538 0.0216351 0.0198464 0.0195681 0.0178704 0.0169584 0.0190412 0.0193139 0.020083 0.0203569 0.0203045 0.0202624 0.0201599 0.0200777 0.0200111 0.0185471 0.0182291 0.0178738 0.0196499 0.0214652 0.031711 0.023458 0.00481094 0.00607181 0.0141026 0.0230799 0.0304916 0.0393106 0.0373763 0.0245244 0.0190616 0.0240806 0.0250388 0.0253383 0.0265909 0.0242468 0.0256249 0.0278313 0.0244931 0.0230521 0.0214061 0.0208966 0.0202961 0.0199888 0.0196425 0.0193303 0.0189944 0.017388 0.0166138 0.0159643 0.0149349 0.0136591 0.0075401 -0.00600571 -0.00755085 0.00498934 0.0146607 0.0225803 0.0300852 0.0385112 0.0499988 0.043444 0.0289484 0.0293059 0.0288812 0.0289225 0.0327821 0.0319073 0.031919 0.0317914 0.028747 0.0283356 0.0240099 0.0223437 0.0208968 0.0200695 0.0193277 0.0187023 0.018041 0.0166913 0.0159939 0.0155952 0.013724 0.0108541 0.000954866 -0.00697638 -0.00093564 0.00890641 0.0165202 0.0223378 0.0291097 0.0366478 0.0511349 0.053979 0.0423381 0.035467 0.0319646 0.029575 0.0312485 0.0296746 0.0291651 0.0279208 0.0236668 0.024147 0.021733 0.0209398 0.0199898 0.0193321 0.0186359 0.0179885 0.0172601 0.0159885 0.0151453 0.0145897 0.0111699 0.00573584 -0.00855594 -0.0119631 0.000686471 0.00903837 0.0163071 0.0211702 0.0273978 0.0340583 0.0472808 0.0562193 0.0487077 0.038377 0.0330489 0.0303037 0.0282712 0.0258119 0.026061 0.0274652 0.0240323 0.0218805 0.0213805 0.0205924 0.0197976 0.0190173 0.0182217 0.0174583 0.0165945 0.0156125 0.0145755 0.0136345 0.00874321 0.000358142 -0.0195025 -0.0192824 9.70543e-05 0.00819752 0.015778 0.0202877 0.0263412 0.0331317 0.0457014 0.0598384 0.054333 0.0399043 0.0333234 0.0304047 0.0268731 0.0263402 0.0252873 0.0237043 0.0226109 0.020425 0.0204254 0.0196686 0.0191157 0.0184647 0.0177869 0.0170903 0.0162282 0.0152024 0.0138202 0.0125653 0.00736537 -3.96429e-05 -0.019233 -0.0207486 -0.00208666 0.00709205 0.0147609 0.0192842 0.0253446 0.0327436 0.0471321 0.0623835 0.0552527 0.039032 0.0322502 0.0289374 0.0256274 0.0254662 0.0230119 0.0198461 0.0203371 0.0196566 0.0198518 0.0192361 0.018783 0.018216 0.0175902 0.0169097 0.015984 0.015547 0.0142191 0.0132806 0.0099994 0.0069226 -0.00613812 -0.0128944 -0.00282396 0.00758596 0.0144023 0.0191088 0.0251566 0.0329872 0.0488474 0.054742 0.0431785 0.0341045 0.0295292 0.0272702 0.0246049 0.0238006 0.0219771 0.0202398 0.0204739 0.0197637 0.0196047 0.0190169 0.0186258 0.0182004 0.0177131 0.017161 0.0163354 0.015983 0.0147365 0.0137127 0.0124983 0.0121266 0.00703919 -0.00709333 -0.00871076 0.00619692 0.01321 0.019119 0.0251852 0.0338373 0.0441242 0.0352894 0.0228837 0.0260688 0.0251588 0.0247832 0.0231565 0.0226408 0.0216286 0.0209716 0.0209783 0.0202632 0.0198306 0.0192668 0.0188429 0.0184816 0.0180705 0.0175971 0.016861 0.0172436 0.0164724 0.0155606 0.0171619 0.0189896 0.0303026 0.0172419 -0.000399974 0.00929897 0.0139591 0.020072 0.0253611 0.0335848 0.028614 0.0156791 0.0147063 0.0215374 0.0232613 0.0224786 0.021123 0.0210903 0.0207545 0.0216869 0.022052 0.0213207 0.0205812 0.0200193 0.0195262 0.0192051 0.0188753 0.0185215 0.018007 0.0187149 0.0183401 0.0179369 0.0202154 0.0249361 0.0406878 0.0501033 0.0375103 0.0257206 0.0236822 0.0212933 0.0212348 0.0222107 0.00540452 -0.00233347 0.0100424 0.0170557 0.0204742 0.0186002 0.0172813 0.0185669 0.0208374 0.0242478 0.024493 0.0228942 0.021701 0.0211075 0.0204651 0.0200954 0.0197799 0.0195197 0.01921 0.0203699 0.0202674 0.0200389 0.0214218 0.0249009 0.0348381 0.0494965 0.0460744 0.0335933 0.0274235 0.0205155 0.015363 0.00613054 -0.00588977 -0.00157133 0.0117881 0.0172442 0.0197206 0.0104545 0.00816595 0.016696 0.0210381 0.0283594 0.0318749 0.027481 0.0232926 0.0223506 0.0216147 0.0212572 0.0209633 0.0207681 0.0206179 0.0216915 0.0218737 0.0219587 0.0228501 0.0246717 0.0294238 0.0374832 0.0374363 0.0286753 0.022685 0.0218013 0.0167966 0.00783431 0.00326109 0.00782967 0.0146224 0.0161873 0.0128058 0.00101482 0.00475256 0.0166528 0.0176646 0.0231094 0.0326214 0.030645 0.0251881 0.0237905 0.0227335 0.0222342 0.0219059 0.0217362 0.0217031 0.0228113 0.0231465 0.0234666 0.0241642 0.0251768 0.027104 0.0306857 0.0313304 0.0266566 0.0225656 0.0216668 0.0178197 0.0129666 0.011118 0.0139546 0.0173943 0.0214908 0.0201752 0.0301377 0.0377325 0.0278526 0.0217023 0.0110293 0.00560081 0.011441 0.0199981 0.021527 0.0226035 0.0227482 0.0227308 0.0226609 0.0226982 0.0233663 0.0237723 0.0242159 0.0248644 0.0255384 0.0263354 0.0275226 0.0275026 0.0256324 0.0233018 0.0213412 0.0185073 0.0161549 0.0155371 0.0174249 0.0215066 0.0274524 0.0399165 0.0642734 0.0605883 0.0372624 0.0279832 0.0181436 0.00712103 0.00933391 0.0201382 0.0217004 0.0229004 0.0230595 0.0231098 0.0230831 0.0231758 0.023751 0.0241084 0.0245275 0.0250661 0.0255529 0.0259073 0.0261621 0.0256548 0.0241678 0.0224236 0.0209115 0.018882 0.0171638 0.0162355 0.0169579 0.0186237 0.0227794 0.0288455 0.0461117 0.0496476 0.034284 0.0238543 0.0150292 0.0107361 0.0142918 0.0217702 0.0224997 0.0234803 0.0235806 0.0235941 0.0235294 0.0235875 0.0237237 0.0240588 0.0244277 0.0248513 0.0251884 0.0253506 0.025281 0.0246803 0.0235183 0.0220642 0.0205691 0.0188534 0.0173422 0.0162312 0.0156601 0.015478 0.0146684 0.0130915 0.00674546 0.0143165 0.0227724 0.0169836 0.0123258 0.02369 0.0294427 0.0234538 0.0235674 0.0233003 0.0233423 0.0233657 0.0233889 0.0235219 0.0236795 0.0239517 0.0242339 0.0245226 0.0247127 0.0247256 0.0244973 0.0238775 0.0228623 0.0216124 0.0202946 0.0188527 0.0175038 0.016362 0.0154115 0.0147583 0.0133326 0.0121721 0.00282566 0.00035811 0.0121512 0.0214768 0.0278351 0.0308781 0.0284154 0.023762 0.0235141 0.0233601 0.0233115 0.0233401 0.0233634 0.023498 0.0234513 0.0237239 0.0239667 0.0241719 0.0242649 0.0241908 0.0238974 0.0233079 0.0224322 0.0213467 0.0201663 0.0189093 0.0176869 0.0165752 0.0154553 0.0145358 0.0131558 0.0125407 0.00912942 0.00651393 0.0112816 0.0218737 0.0288819 0.026966 0.0236791 0.0221147 0.022232 0.0223812 0.0225373 0.0227677 0.022958 0.0232075 0.0232923 0.0235513 0.0237595 0.0239032 0.0239292 0.0237934 0.0234619 0.0228891 0.0220957 0.0211284 0.0200756 0.0189785 0.0179038 0.0169241 0.0159302 0.0151226 0.0140208 0.0136564 0.0122787 0.0118071 0.0143341 0.0191087 0.0220451 0.0214619 0.0213238 0.0212568 0.0215916 0.0219119 0.0221615 0.0224754 0.0227361 0.0230282 0.0231208 0.0234013 0.0236116 0.0237363 0.0237364 0.0235745 0.02323 0.0226686 0.0219221 0.0210137 0.0200308 0.0190189 0.0180379 0.0171602 0.0163074 0.0156287 0.014834 0.0144794 0.0139484 0.0139145 0.0153113 0.0180011 0.0199796 0.0200466 0.0202483 0.020458 0.0208166 0.0212487 0.0216338 0.0220662 0.0224367 0.0228043 0.0230319 0.0233344 0.0235607 0.023691 0.0236927 0.0235252 0.0231778 0.0226098 0.0218694 0.0209592 0.0199845 0.0189916 0.0180532 0.0172542 0.0165443 0.0160396 0.0155399 0.0153571 0.0151622 0.0153584 0.0162226 0.0175724 0.0186909 0.0190397 0.0195431 0.0199582 0.0204194 0.0209258 0.0213815 0.0218594 0.0222793 0.0226826 0.0229962 0.0233413 0.0236087 0.0237754 0.023808 0.0236573 0.0233172 0.0227274 0.0219572 0.0209827 0.0199486 0.0188978 0.0179262 0.017142 0.016508 0.0161185 0.0158201 0.0157737 0.0158002 0.0160739 0.0166891 0.0175677 0.0183755 0.018781 0.0192456 0.0196828 0.0201581 0.0206837 0.0211809 0.0216923 0.0221577 0.0226024 0.0230245 0.0234273 0.0237591 0.0239934 0.0240891 0.0239792 0.0236601 0.0230287 0.0221889 0.0210723 0.0198971 0.0186973 0.0176125 0.0168012 0.0162096 0.0159317 0.0157959 0.0159 0.0160851 0.0164385 0.0169493 0.0175658 0.0181623 0.0185954 0.0190784 0.0195523 0.0200492 0.020579 0.0210912 0.0216134 0.0221049 0.022584 0.0231001 0.0235814 0.0240034 0.0243396 0.0245332 0.024495 0.024217 0.0235353 0.0225931 0.0212553 0.0198548 0.0184139 0.0171229 0.0162269 0.0156481 0.0154779 0.0154834 0.0157403 0.0160679 0.0165103 0.0170169 0.0175673 0.0180982 0.0185507 0.0190223 0.0194977 0.0199926 0.0205145 0.0210324 0.0215637 0.0220814 0.0226018 
        </DataArray>
        <DataArray Name="vy" NumberOfComponents="1" type="Float32" format="ascii">
0.0095258 0.00967502 0.00999293 0.0104568 0.0111784 0.0120738 0.013176 0.014358 0.0153677 0.0161742 0.0162498 0.0160756 0.015064 0.0139325 0.012573 0.0115687 0.0106843 0.010154 0.00979385 0.00966941 0.00960314 0.00962578 0.00959726 0.00959249 0.00960527 0.00958829 0.00959214 0.00955778 0.00952934 0.00948313 0.00945826 0.00945404 0.00891123 0.00905544 0.00942027 0.00998115 0.0109125 0.0121082 0.0136443 0.0153841 0.0168831 0.0180971 0.0181958 0.0179885 0.0164251 0.0147115 0.0127253 0.0113795 0.0102388 0.0095947 0.00918893 0.00907461 0.00902256 0.00910029 0.00909221 0.0091176 0.00913187 0.00910617 0.00909523 0.00904574 0.00900082 0.00893497 0.00888763 0.00885648 0.00820563 0.00830839 0.0086848 0.009312 0.0104338 0.0119023 0.0139344 0.0163171 0.0186048 0.0204578 0.0207586 0.0204949 0.0182771 0.0155409 0.0127108 0.0109904 0.00959041 0.0088708 0.00845403 0.0084208 0.00842163 0.00861888 0.00862109 0.00867483 0.00867939 0.00863604 0.00861067 0.00854305 0.00847765 0.00837962 0.00828958 0.00820309 0.0074425 0.0074786 0.00784286 0.00849561 0.00974776 0.0113952 0.0139053 0.0173813 0.0208148 0.0236222 0.0241185 0.0238111 0.0203125 0.0160649 0.0119958 0.0100866 0.00862016 0.00795068 0.00759645 0.00771118 0.00775638 0.00817457 0.00809176 0.00823402 0.00824721 0.00819756 0.00816274 0.00807336 0.00798116 0.00783758 0.00768531 0.00751935 0.00669176 0.00666942 0.00699827 0.00758242 0.00869184 0.00995759 0.0126783 0.0171914 0.023097 0.0280657 0.0293566 0.0289892 0.0235524 0.015806 0.0099842 0.00843135 0.00739422 0.00704171 0.00684589 0.00715958 0.00722343 0.00789995 0.00767114 0.00784604 0.00781191 0.00773191 0.00769422 0.00760016 0.00749737 0.00731668 0.00710041 0.00685257 0.00607524 0.00600113 0.00621434 0.0063471 0.00651604 0.00600396 0.00834378 0.0168449 0.0275212 0.0357763 0.0382204 0.0366305 0.0276804 0.014718 0.00482197 0.00457248 0.00541819 0.00602316 0.00629566 0.0068155 0.00678094 0.00802248 0.00693328 0.00735211 0.00744594 0.00739851 0.00738401 0.00727636 0.00715007 0.00691919 0.00662985 0.00630482 0.00571913 0.00564333 0.00552008 0.00457568 0.00223751 -0.00208673 0.00112271 0.0151813 0.0345115 0.0461866 0.046882 0.0466498 0.0378017 0.0148735 -0.003581 -0.00216491 0.00247056 0.0052546 0.0065407 0.0073599 0.00702656 0.00847553 0.00644817 0.00676576 0.00676436 0.00677513 0.00689122 0.00688185 0.00681463 0.00659954 0.00628938 0.00595482 0.00571089 0.00552291 0.00461869 0.00129317 -0.00547168 -0.0169026 -0.0079844 0.0264477 0.0478504 0.0504189 0.046948 0.0493953 0.0502975 0.0303293 -0.00996242 -0.0136556 -0.00254084 0.00362331 0.00713934 0.00796716 0.00761728 0.0112867 0.00401614 0.0050468 0.00637792 0.00661462 0.0069384 0.00694082 0.00685136 0.0066023 0.00625845 0.0059361 0.00589769 0.00552116 0.00332128 -0.00241282 -0.0153 -0.027385 0.00465387 0.044612 0.0505665 0.0431623 0.0390877 0.042185 0.0517692 0.045215 -0.00430709 -0.0193547 -0.00620614 0.00284526 0.00827996 0.00948011 0.00865511 0.0113174 0.00427231 0.00596987 0.00553133 0.00577701 0.00659719 0.00688107 0.00691089 0.00672569 0.00640915 0.0061441 0.00657935 0.00627245 0.00366011 -0.00222166 -0.0153655 -0.0200008 0.0201898 0.0421468 0.0387136 0.0329548 0.0304232 0.0335305 0.0436053 0.0451212 0.00998894 -0.0152701 -0.00790407 0.00182021 0.00624106 0.00851145 0.00948953 0.00756337 0.00555131 0.00872358 0.00910319 0.00863469 0.00817937 0.00788981 0.00760689 0.00731128 0.00696704 0.00676921 0.00720279 0.00687118 0.00460633 -0.000324025 -0.00930968 -0.00915362 0.0217234 0.0338692 0.0290914 0.0255425 0.0237847 0.0259561 0.0327003 0.0379096 0.0192393 -0.00712078 -0.00494678 0.00289994 0.00465995 0.00604828 0.0103978 0.00962182 0.00941906 0.00846221 0.0114174 0.011395 0.00978084 0.00898164 0.00841789 0.00801387 0.00763012 0.00741235 0.00787365 0.00754578 0.00602224 0.00305604 -0.00249027 -0.000489953 0.0205784 0.0254124 0.0211563 0.0192326 0.0180115 0.0190128 0.0221855 0.0266433 0.0204666 0.0022513 0.00246324 0.0071078 0.00708867 0.00814445 0.0116962 0.00877395 0.0119759 0.011115 0.0118602 0.0116462 0.0102202 0.00956979 0.00907829 0.00872822 0.00838843 0.00814931 0.00850843 0.00831112 0.00822215 0.00884084 0.00932168 0.0102893 0.0110522 0.0137582 0.0135322 0.0134257 0.0128595 0.0128004 0.0130544 0.0151753 0.0173716 0.0116464 0.0108155 0.0111779 0.00982306 0.0105434 0.0123919 0.00783943 0.0118828 0.0141996 0.0139168 0.0126053 0.0112429 0.010452 0.00990402 0.00951837 0.00917709 0.00886675 0.00945958 0.00965829 0.0115583 0.0165606 0.0242938 0.0217089 -0.00151327 -0.000741936 0.00521957 0.00726592 0.00761087 0.00617773 0.00295001 0.000576766 0.0102553 0.0240493 0.0223239 0.0166677 0.013325 0.0120732 0.0137169 0.0113679 0.0142585 0.0143275 0.0138466 0.0125279 0.011564 0.0108724 0.010447 0.0101652 0.00995153 0.0097002 0.010541 0.0110229 0.0143547 0.0218283 0.035014 0.0320414 -0.00659332 -0.0138309 -0.00331557 0.00114162 0.00235941 -0.000798611 -0.00885894 -0.0140372 0.00724693 0.0373689 0.0327396 0.0216013 0.0163643 0.0140224 0.0150584 0.0131185 0.0149617 0.0146128 0.014278 0.0130696 0.0122002 0.0114538 0.0110344 0.0108082 0.0107211 0.0105801 0.0115723 0.0121117 0.0158201 0.023549 0.040646 0.0422724 -0.00545378 -0.0226183 -0.0116752 -0.00449885 -0.00277212 -0.00772393 -0.0202686 -0.0210813 0.0166595 0.0446075 0.035181 0.0233904 0.0182553 0.015439 0.0163081 0.0147493 0.0155123 0.0148806 0.014587 0.0133824 0.0125185 0.0117411 0.0113584 0.0112351 0.0113283 0.0113769 0.0126074 0.0132741 0.016374 0.0233888 0.0393816 0.0503124 0.0126089 -0.0283857 -0.024826 -0.0122772 -0.00951527 -0.0159635 -0.0276711 -0.0174129 0.0298426 0.0449531 0.0320585 0.0227073 0.0186437 0.0161407 0.016784 0.0149635 0.0157015 0.0156254 0.0153774 0.0141068 0.0131333 0.012242 0.0117858 0.0116926 0.0119109 0.0121878 0.0131555 0.0137462 0.0153713 0.0198162 0.0286594 0.0416027 0.0263006 -0.016124 -0.0243869 -0.0152597 -0.013761 -0.0212515 -0.024532 -0.0019487 0.0326413 0.0372404 0.0274669 0.022069 0.0211143 0.0163637 0.0165857 0.0137064 0.0136931 0.0150963 0.0161518 0.0147699 0.0136348 0.0125903 0.0120179 0.0119177 0.0122034 0.0126468 0.0135316 0.0140388 0.0146787 0.0164341 0.0194245 0.0251694 0.0179027 -0.00378151 -0.0132085 -0.00746541 -0.00720184 -0.0161589 -0.0123544 0.00748337 0.0240866 0.0247996 0.0215913 0.0207238 0.0217218 0.0166005 0.0138889 0.00938722 0.0124967 0.0177764 0.0180651 0.0155659 0.0142139 0.0131318 0.0124274 0.0122474 0.0124927 0.0129848 0.0135267 0.0139924 0.014229 0.0147235 0.0150676 0.0164375 0.0133307 0.00120975 -0.00575619 -0.00216079 -0.00216326 -0.00755067 -0.00326155 0.00632227 0.0158719 0.0184495 0.0199586 0.028731 0.0338452 0.00850396 0.00334675 0.00165497 0.00103864 0.015016 0.0262118 0.0203402 0.0157504 0.0138621 0.0127701 0.0124276 0.012568 0.0130169 0.0134059 0.0137595 0.0138056 0.0137403 0.0130504 0.0124732 0.0101185 0.00490869 0.00114076 -0.000267539 -0.00118388 -0.00187876 0.00141977 0.00662481 0.0125014 0.0162701 0.0232699 0.0356778 0.0295327 0.00100665 0.00200488 0.00473158 -0.000217249 0.0113212 0.0240434 0.020183 0.0160297 0.0142289 0.0130894 0.0126715 0.0126921 0.0130172 0.0130931 0.0132967 0.0132202 0.0129472 0.0120608 0.0109076 0.00887192 0.00561455 0.00326191 0.00265292 0.00215292 0.00147113 0.00324962 0.00573816 0.00925141 0.0115292 0.0159212 0.020798 0.0163368 0.0125567 0.0175931 0.0180279 0.0137222 0.0154487 0.0121373 0.0128712 0.0134783 0.0132263 0.0127745 0.0125938 0.0126269 0.0128515 0.0128393 0.0128994 0.0127419 0.0124049 0.0115922 0.0105062 0.00889019 0.00681159 0.00516987 0.00419625 0.00366889 0.00346549 0.00435244 0.00536865 0.00653074 0.00639264 0.00495356 8.54719e-07 0.00494467 0.0300055 0.0330252 0.0254777 0.0212049 0.024713 0.00510738 0.00858134 0.01243 0.0128598 0.0127606 0.0126559 0.012644 0.0127437 0.0125702 0.0125002 0.0122737 0.0119107 0.0112191 0.010318 0.00910094 0.00769257 0.00653866 0.00588877 0.0055245 0.00533668 0.00576013 0.0061196 0.00666627 0.00615294 0.00548162 -0.00114454 -0.00495892 0.0258579 0.0409716 0.0370954 0.0233395 0.0164106 0.000669659 0.00789808 0.0119385 0.0126509 0.0127222 0.0126827 0.0126255 0.0126085 0.012324 0.0121937 0.0119585 0.0116296 0.0110851 0.0104056 0.00952934 0.0085816 0.00775445 0.00720681 0.00689123 0.00677255 0.00694719 0.00707247 0.00725489 0.00717605 0.0074025 0.00646679 0.00401427 0.0149651 0.0321213 0.0355028 0.0184667 0.00701456 0.00584601 0.0110645 0.0122908 0.0126408 0.0126417 0.0125952 0.0125107 0.0124281 0.0120984 0.0119296 0.011705 0.0114273 0.0110227 0.0105416 0.00995108 0.00934432 0.00880555 0.00845206 0.00823371 0.00815103 0.00820856 0.00824393 0.00828173 0.0082306 0.00838949 0.00886437 0.00813785 0.0144853 0.0200328 0.0216193 0.0144684 0.01211 0.0111946 0.0125913 0.012796 0.0128156 0.0127292 0.0125826 0.0124218 0.0122599 0.0118255 0.0116839 0.0115169 0.0113249 0.0110644 0.0107666 0.0104061 0.0100489 0.00971533 0.00949177 0.00933367 0.00927741 0.00927485 0.00929053 0.00928489 0.0093278 0.00943086 0.0100834 0.0102265 0.0131119 0.0162942 0.0174523 0.0137166 0.0118408 0.0114885 0.0120058 0.012215 0.0123126 0.0123232 0.0122285 0.0121075 0.0119653 0.011557 0.0114508 0.011351 0.0112535 0.0111356 0.0110102 0.0108573 0.0107135 0.010564 0.010471 0.0103697 0.0103252 0.0102576 0.0102174 0.0101281 0.0101159 0.0100654 0.0104643 0.0105248 0.0121487 0.0132125 0.0138599 0.0124099 0.0120416 0.011902 0.0120516 0.0121619 0.0121422 0.0120922 0.0119568 0.0118209 0.0116784 0.0112388 0.0111975 0.0111855 0.0111971 0.0112261 0.01127 0.0113104 0.0113588 0.0113702 0.0113922 0.0113293 0.0112798 0.0111328 0.0110086 0.0108185 0.010725 0.0106013 0.0107908 0.0108441 0.0116129 0.0121595 0.01252 0.0117692 0.0114302 0.0113658 0.0114309 0.0115543 0.0115656 0.0115601 0.0114775 0.0113937 0.0113034 0.010896 0.0109162 0.0109939 0.0111194 0.0113034 0.0115267 0.0117724 0.012027 0.0122095 0.0123608 0.012327 0.0122604 0.0119892 0.0117266 0.0113639 0.0111094 0.0108371 0.0108055 0.0107122 0.011037 0.0111794 0.0113538 0.0110626 0.0110091 0.011036 0.0110737 0.0111495 0.0111316 0.0111091 0.0110348 0.0109711 0.0109138 0.0105039 0.0105844 0.0107522 0.0109936 0.0113418 0.0117587 0.0122342 0.0127237 0.0131079 0.0134135 0.0134105 0.0133171 0.012885 0.0124322 0.0118409 0.01139 0.0109557 0.0107452 0.0105634 0.0106392 0.0106626 0.0107315 0.0105786 0.0105231 0.0105377 0.0105475 0.0105979 0.0105845 0.0105727 0.0105258 0.0104933 0.0104736 0.0100522 0.0101791 0.0104312 0.0107898 0.01132 0.0119633 0.0127192 0.0135142 0.0141539 0.0146676 0.0146819 0.0145551 0.0138644 0.0131412 0.0122241 0.0115274 0.0108881 0.0105095 0.0102272 0.010162 0.0101083 0.0101293 0.0100653 0.0100553 0.0100781 0.0100771 0.0101007 0.0100762 0.0100562 0.0100141 0.00999216 0.00999009 
        </DataArray>
        <DataArray Name="vz" NumberOfComponents="1" type="Float32" format="ascii">
0 0 0 0 0 0 0 0 0 0 0 0 0 0 0 0 0 0 0 0 0 0 0 0 0 0 0 0 0 0 0 0 0 0 0 0 0 0 0 0 0 0 0 0 0 0 0 0 0 0 0 0 0 0 0 0 0 0 0 0 0 0 0 0 0 0 0 0 0 0 0 0 0 0 0 0 0 0 0 0 0 0 0 0 0 0 0 0 0 0 0 0 0 0 0 0 0 0 0 0 0 0 0 0 0 0 0 0 0 0 0 0 0 0 0 0 0 0 0 0 0 0 0 0 0 0 0 0 0 0 0 0 0 0 0 0 0 0 0 0 0 0 0 0 0 0 0 0 0 0 0 0 0 0 0 0 0 0 0 0 0 0 0 0 0 0 0 0 0 0 0 0 0 0 0 0 0 0 0 0 0 0 0 0 0 0 0 0 0 0 0 0 0 0 0 0 0 0 0 0 0 0 0 0 0 0 0 0 0 0 0 0 0 0 0 0 0 0 0 0 0 0 0 0 0 0 0 0 0 0 0 0 0 0 0 0 0 0 0 0 0 0 0 0 0 0 0 0 0 0 0 0 0 0 0 0 0 0 0 0 0 0 0 0 0 0 0 0 0 0 0 0 0 0 0 0 0 0 0 0 0 0 0 0 0 0 0 0 0 0 0 0 0 0 0 0 0 0 0 0 0 0 0 0 0 0 0 0 0 0 0 0 0 0 0 0 0 0 0 0 0 0 0 0 0 0 0 0 0 0 0 0 0 0 0 0 0 0 0 0 0 0 0 0 0 0 0 0 0 0 0 0 0 0 0 0 0 0 0 0 0 0 0 0 0 0 0 0 0 0 0 0 0 0 0 0 0 0 0 0 0 0 0 0 0 0 0 0 0 0 0 0 0 0 0 0 0 0 0 0 0 0 0 0 0 0 0 0 0 0 0 0 0 0 0 0 0 0 0 0 0 0 0 0 0 0 0 0 0 0 0 0 0 0 0 0 0 0 0 0 0 0 0 0 0 0 0 0 0 0 0 0 0 0 0 0 0 0 0 0 0 0 0 0 0 0 0 0 0 0 0 0 0 0 0 0 0 0 0 0 0 0 0 0 0 0 0 0 0 0 0 0 0 0 0 0 0 0 0 0 0 0 0 0 0 0 0 0 0 0 0 0 0 0 0 0 0 0 0 0 0 0 0 0 0 0 0 0 0 0 0 0 0 0 0 0 0 0 0 0 0 0 0 0 0 0 0 0 0 0 0 0 0 0 0 0 0 0 0 0 0 0 0 0 0 0 0 0 0 0 0 0 0 0 0 0 0 0 0 0 0 0 0 0 0 0 0 0 0 0 0 0 0 0 0 0 0 0 0 0 0 0 0 0 0 0 0 0 0 0 0 0 0 0 0 0 0 0 0 0 0 0 0 0 0 0 0 0 0 0 0 0 0 0 0 0 0 0 0 0 0 0 0 0 0 0 0 0 0 0 0 0 0 0 0 0 0 0 0 0 0 0 0 0 0 0 0 0 0 0 0 0 0 0 0 0 0 0 0 0 0 0 0 0 0 0 0 0 0 0 0 0 0 0 0 0 0 0 0 0 0 0 0 0 0 0 0 0 0 0 0 0 0 0 0 0 0 0 0 0 0 0 0 0 0 0 0 0 0 0 0 0 0 0 0 0 0 0 0 0 0 0 0 0 0 0 0 0 0 0 0 0 0 0 0 0 0 0 0 0 0 0 0 0 0 0 0 0 0 0 0 0 0 0 0 0 0 0 0 0 0 0 0 0 0 0 0 0 0 0 0 0 0 0 0 0 0 0 0 0 0 0 0 0 0 0 0 0 0 0 0 0 0 0 0 0 0 0 0 0 0 0 0 0 0 0 0 0 0 0 0 0 0 0 0 0 0 0 0 0 0 0 0 0 0 0 0 0 0 0 0 0 0 0 0 0 0 0 0 0 0 0 0 0 0 0 0 0 0 0 0 0 0 0 0 0 0 0 0 0 0 0 0 0 0 0 0 0 0 0 0 0 0 0 0 0 0 0 0 0 0 0 0 0 0 0 0 0 0 0 0 0 0 0 0 0 0 0 0 0 0 0 0 0 0 0 0 0 0 0 0 0 0 0 0 0 0 0 0 0 0 0 0 0 0 0 0 0 0 0 0 0 0 0 0 0 0 0 0 0 0 0 0 0 0 0 0 0 0 0 0 0 0 0 0 0 0 0 0 0 0 0 0 0 0 0 0 0 0 0 0 0 0 0 0 0 0 0 0 0 0 0 0 0 0 0 0 0 0 0 0 0 0 0 0 0 0 0 0 0 0 0 0 0 
        </DataArray>
        <DataArray Name="p" NumberOfComponents="1" type="Float32" format="ascii">