<?xml version="1.0"?>
<VTKFile type="StructuredGrid" version="0.1" byte_order="LittleEndian">
  <StructuredGrid WholeExtent="0 32 0 32 0 1">
    <Piece Extent="0 32 0 32 0 1">
      <PointData>
      </PointData>
      <CellData>
        <DataArray Name="vx" NumberOfComponents="1" type="Float32" format="ascii">
0.0237231 0.0243734 0.0249911 0.0255284 0.025919 0.0260083 0.0257858 0.0249714 0.0237219 0.0218891 0.019834 0.0177435 0.015923 0.0146715 0.0139812 0.0138726 0.0140196 0.0144874 0.0150291 0.0156771 0.0163579 0.0170501 0.0177221 0.0183727 0.0189744 0.0195589 0.0201322 0.0207047 0.0212774 0.0218658 0.0224623 0.0230886 0.0238003 0.024579 0.0253556 0.0260874 0.0266835 0.026971 0.0269197 0.0261147 0.0247315 0.0224743 0.019834 0.0171393 0.0148268 0.0133689 0.0127897 0.012938 0.0133423 0.0140782 0.0148366 0.0156384 0.0164017 0.0170957 0.0177274 0.0183653 0.018917 0.0194896 0.02004 0.0206032 0.0211731 0.0217711 0.0223964 0.0230792 0.023802 0.0247027 0.0256318 0.0265695 0.0274152 0.028002 0.0283408 0.0276951 0.0262193 0.0233705 0.0198157 0.0161916 0.0132155 0.0115897 0.0113316 0.0119938 0.0127426 0.0137833 0.0147491 0.0156749 0.0165208 0.0171825 0.0177624 0.0184148 0.0188954 0.0194493 0.0199599 0.020499 0.0210502 0.021642 0.0222805 0.0230069 0.0236334 0.0246014 0.0256111 0.0267244 0.0278319 0.0289987 0.0301845 0.0302428 0.0290332 0.0253149 0.0201172 0.0148653 0.010642 0.00881386 0.00949247 0.0111443 0.0124377 0.013795 0.0149094 0.0158753 0.0167555 0.0173095 0.0178023 0.0184804 0.0188633 0.0194087 0.0198743 0.0203819 0.0208975 0.0214583 0.0220788 0.0228116 0.0231816 0.0241188 0.0250946 0.0263722 0.0279623 0.030432 0.0338717 0.0355467 0.0344497 0.028991 0.0204555 0.0122874 0.00645172 0.00411698 0.00644134 0.0103389 0.0126731 0.0144334 0.0155911 0.016389 0.0172419 0.0174098 0.0177376 0.0186436 0.0188887 0.0194291 0.019809 0.0202492 0.0206925 0.0211817 0.0217372 0.0224167 0.0223761 0.0231469 0.0239735 0.0255562 0.0280525 0.0334244 0.0405341 0.0440503 0.0425646 0.034084 0.0217379 0.0113543 0.00271609 -0.00242443 0.00163087 0.00892596 0.0132446 0.0156413 0.0167619 0.0171767 0.0177973 0.017308 0.0174431 0.01866 0.0187747 0.0194169 0.0197532 0.0201287 0.0204723 0.0208364 0.0212565 0.0217875 0.0211675 0.0216898 0.0223313 0.0245355 0.0286303 0.0384583 0.0505109 0.0520051 0.0443958 0.0336715 0.0260689 0.0199674 0.00974621 -0.00322032 -0.00410157 0.00687937 0.0140609 0.0174385 0.0186163 0.0184555 0.0191085 0.0168106 0.0164984 0.0191277 0.0190173 0.0196601 0.01983 0.0200144 0.0201814 0.0203504 0.0205669 0.0208653 0.0196771 0.0198501 0.0203319 0.0231973 0.0284817 0.0433185 0.0519135 0.0386172 0.022701 0.0195612 0.0247741 0.0279145 0.0277186 0.0125159 -0.00117776 0.00642968 0.0154589 0.0194684 0.0208419 0.021109 0.0213694 0.018029 0.0182893 0.0203632 0.0193009 0.0199694 0.0200561 0.0200301 0.0199712 0.0198614 0.019786 0.0197393 0.0180384 0.017881 0.0178919 0.0205054 0.0238678 0.0365822 0.0328123 0.0120778 0.00696503 0.0124382 0.0225862 0.0303936 0.0371393 0.0327299 0.0161826 0.0114557 0.0203717 0.023323 0.0249142 0.0280118 0.0266394 0.0261653 0.0285892 0.0254395 0.0232495 0.0215459 0.0207558 0.0200376 0.0196346 0.019204 0.0188382 0.0184604 0.0162493 0.015227 0.0143611 0.0131961 0.0120511 0.00713439 -0.00489439 -0.00915366 0.000870518 0.0112505 0.0213508 0.0305549 0.0394663 0.0495147 0.0433022 0.0299217 0.0289634 0.0279753 0.0272858 0.026857 0.025505 0.0288243 0.0278989 0.0251287 0.0261822 0.0228395 0.021595 0.0202547 0.0194798 0.0186617 0.0179331 0.0170938 0.0150373 0.0137484 0.0125448 0.00938616 0.00528947 -0.00788144 -0.0161249 -0.00825582 0.00308416 0.0130435 0.0212977 0.0300027 0.0392738 0.0540056 0.0599561 0.0496409 0.0390067 0.0339103 0.0303279 0.0284667 0.0262631 0.0268357 0.0245413 0.0221079 0.0235537 0.021337 0.0206212 0.0195161 0.0187648 0.0178802 0.0170287 0.0160002 0.0139345 0.0121731 0.0102851 0.0046237 -0.00362471 -0.0232192 -0.0257484 -0.00825506 0.00265543 0.0128572 0.0202567 0.0285754 0.0377178 0.0519968 0.0648666 0.0592163 0.0449031 0.0373551 0.0325867 0.0299217 0.0266012 0.0244513 0.0234335 0.0214088 0.0210247 0.020484 0.0200236 0.0192111 0.0183706 0.0173842 0.0163635 0.0151008 0.0134376 0.0114021 0.00890806 0.00157196 -0.0103277 -0.034276 -0.0326708 -0.00899918 0.00208636 0.0125979 0.0196758 0.0277904 0.0374736 0.0514823 0.0703235 0.0678542 0.0490889 0.0393053 0.0336789 0.0300218 0.0283363 0.0276415 0.0265645 0.0239319 0.0213515 0.0206199 0.0196756 0.0188347 0.017952 0.016996 0.0159802 0.0146778 0.013386 0.0113299 0.0090827 0.00265121 -0.0063614 -0.0258834 -0.0275203 -0.00905705 0.00237038 0.0121255 0.0190629 0.0269668 0.0370684 0.0522532 0.0710823 0.0670599 0.0472536 0.0377423 0.0321268 0.0283982 0.0271316 0.0257355 0.0235784 0.0221649 0.0206917 0.0202386 0.0193674 0.0186257 0.0178018 0.0169091 0.0159328 0.0146445 0.0141898 0.0125546 0.0111772 0.00764156 0.00423877 -0.00788736 -0.0156685 -0.00792445 0.00380068 0.012239 0.0191534 0.026892 0.0369275 0.0529055 0.06146 0.0518836 0.0390202 0.0330964 0.0294165 0.0264363 0.0252077 0.0239018 0.0226888 0.022151 0.021043 0.0203432 0.019379 0.0186357 0.0179065 0.0171613 0.0163536 0.015274 0.0151227 0.0138082 0.0128113 0.0116521 0.0115946 0.00674389 -0.00774701 -0.0113446 0.00265369 0.0113098 0.0191037 0.0267448 0.0360037 0.0451911 0.0353669 0.0232341 0.0260643 0.0256516 0.0253438 0.0236404 0.0230966 0.0228601 0.0230162 0.0227737 0.0216393 0.0207025 0.0197223 0.0189521 0.0182963 0.0176665 0.0169998 0.016117 0.0167918 0.0161803 0.0156714 0.0176987 0.0206878 0.0311159 0.0202626 0.00234765 0.00771075 0.0130897 0.0200964 0.0262205 0.0335506 0.0254274 0.00933456 0.00917041 0.0184303 0.0215061 0.021681 0.0200727 0.0202239 0.0215333 0.0239745 0.0246092 0.0232016 0.021653 0.0205098 0.019618 0.0190178 0.0185267 0.0180618 0.0175147 0.0185863 0.0184678 0.0185775 0.021448 0.0271255 0.0427237 0.0501726 0.0370133 0.0243228 0.0225992 0.0225426 0.0239832 0.0238412 0.00885393 -0.00202184 0.00633745 0.0149223 0.0186047 0.0176709 0.0149544 0.0156764 0.0210382 0.0273216 0.0280386 0.0251105 0.0227904 0.021534 0.0205275 0.0199358 0.0195179 0.019214 0.0189506 0.0203526 0.0205345 0.0207949 0.0228299 0.0272426 0.0381139 0.0514852 0.0495447 0.0368734 0.0277171 0.0209899 0.0139396 0.00288215 -0.00662307 -0.00395073 0.00731704 0.0143944 0.0166498 0.0101758 0.0054648 0.0109445 0.02033 0.0320289 0.0368827 0.0308551 0.0244198 0.0223242 0.0212228 0.0207594 0.0205214 0.0204118 0.0204066 0.02183 0.0222885 0.0227877 0.0242107 0.0267962 0.0324641 0.0405238 0.040804 0.0336571 0.0260839 0.0204289 0.0132003 0.00408168 0.000135462 0.00463092 0.011593 0.0150167 0.0133198 0.0068321 0.0119846 0.0216783 0.0209385 0.0246253 0.0336236 0.0306325 0.0248071 0.0230534 0.0220704 0.0216604 0.0214962 0.0214721 0.0216259 0.0229448 0.0235503 0.0242063 0.0252802 0.0268294 0.0293637 0.033291 0.0338789 0.0295381 0.0244302 0.0208745 0.0157556 0.0105219 0.00859875 0.0113939 0.0151172 0.0191969 0.0192536 0.0239498 0.0329581 0.0298724 0.0197801 0.00561701 -0.00238418 0.00420227 0.0148659 0.0180519 0.020554 0.0213313 0.0219188 0.0222061 0.0225618 0.0236026 0.0242414 0.0249499 0.0258606 0.0268715 0.0279975 0.02943 0.029385 0.0273228 0.0242347 0.0210574 0.0173813 0.0144427 0.0136971 0.0157501 0.0196452 0.0261435 0.0359509 0.0573633 0.0609356 0.0415168 0.0269815 0.0112491 -0.00956157 -0.00626819 0.0129287 0.0173794 0.0208453 0.0218004 0.0224848 0.0227943 0.0231734 0.0240201 0.0245845 0.0252169 0.0259468 0.0266544 0.0271845 0.027574 0.0270367 0.0253585 0.023093 0.0208551 0.0182691 0.0162355 0.0153377 0.0163346 0.0186597 0.0238242 0.0323977 0.0511042 0.0560967 0.0396863 0.0259009 0.0126757 -0.00170506 0.0022114 0.0158704 0.0187139 0.0215197 0.0223499 0.0229831 0.0232777 0.0236256 0.0241095 0.0245808 0.0251002 0.0256558 0.0261316 0.0263765 0.0263496 0.025678 0.0243443 0.0225432 0.0206004 0.0185114 0.0167574 0.0156434 0.0152402 0.0156005 0.015624 0.0167381 0.0138191 0.0210712 0.0275344 0.0244976 0.0182347 0.0289071 0.0356478 0.0255623 0.0247063 0.0235704 0.0234805 0.0234491 0.0235465 0.0237798 0.0241159 0.0244913 0.0248824 0.0252638 0.0255407 0.0255928 0.0253639 0.0246608 0.0234869 0.0219762 0.0203641 0.0186509 0.0171086 0.0159123 0.0149671 0.0144822 0.0130283 0.011861 0.00262291 -0.000841228 0.0103078 0.0193347 0.0263524 0.0372727 0.0359806 0.0262199 0.0248253 0.0237122 0.023583 0.0235335 0.0236256 0.0238349 0.0239433 0.0242777 0.0245908 0.0248562 0.0249993 0.0249357 0.0246177 0.023941 0.0229247 0.0216343 0.0202217 0.0187425 0.0173351 0.0161248 0.014925 0.0140291 0.0124952 0.0115123 0.00709672 0.00288947 0.00728425 0.0174506 0.0265323 0.0306345 0.0280752 0.0242947 0.0238946 0.0232496 0.0232236 0.0232492 0.0234064 0.0236552 0.0238161 0.0241176 0.0243716 0.0245526 0.0246029 0.0244594 0.0240882 0.023428 0.0225048 0.021364 0.0201199 0.0188316 0.0175802 0.0164734 0.0153401 0.0144529 0.0131229 0.0124398 0.0103445 0.00889846 0.0112139 0.0166485 0.0214666 0.0238227 0.0238519 0.022685 0.0228312 0.0226664 0.0228171 0.0229927 0.023232 0.0235226 0.023652 0.023964 0.0242069 0.0243564 0.0243674 0.0241883 0.0237975 0.0231502 0.0222812 0.0212169 0.0200563 0.018864 0.017705 0.0166795 0.0156645 0.0148666 0.0138673 0.0133065 0.0123985 0.0119473 0.0133525 0.0165248 0.0194452 0.0209887 0.0215533 0.0214683 0.0218187 0.0219753 0.0222863 0.0226118 0.0229552 0.0233168 0.0235734 0.0239038 0.0241564 0.0243045 0.0243095 0.0241191 0.023721 0.0230674 0.0222061 0.0211492 0.0200033 0.0188367 0.0177235 0.0167688 0.0158941 0.01526 0.0145761 0.0142427 0.0138311 0.0138552 0.0147958 0.0165268 0.0182598 0.0194375 0.0202576 0.0206198 0.0211355 0.0215195 0.0219531 0.0223819 0.022795 0.0232044 0.0235296 0.0239074 0.024205 0.0243915 0.0244298 0.0242577 0.0238679 0.0231943 0.0223005 0.0211799 0.0199646 0.0187312 0.0175797 0.0166281 0.0158349 0.0153202 0.0148818 0.0147397 0.0146635 0.0148984 0.0156229 0.016782 0.0179871 0.0188875 0.019623 0.0201217 0.0206761 0.0211658 0.0216691 0.0221683 0.0226436 0.0231081 0.0235583 0.0240016 0.024372 0.0246322 0.0247413 0.0246148 0.0242481 0.023534 0.0225614 0.0212958 0.0199192 0.0185243 0.0172548 0.0162603 0.015517 0.0151208 0.0148817 0.0149314 0.0150775 0.0154537 0.0160807 0.0169133 0.0177932 0.0185476 0.0192473 0.0198208 0.0204098 0.0209608 0.0215061 0.0220473 0.0225669 0.0230797 0.0236259 0.024161 0.0246383 0.0250149 0.0252388 0.0251973 0.02488 0.02412 0.0230317 0.021538 0.0198898 0.0182169 0.0167259 0.0156207 0.0148972 0.0146151 0.0145556 0.0147953 0.0151381 0.015646 0.0162776 0.017007 0.0177528 0.0184344 0.0190765 0.0196598 0.0202429 0.0208116 0.021376 0.0219457 0.0225064 0.0230746 
        </DataArray>
        <DataArray Name="vy" NumberOfComponents="1" type="Float32" format="ascii">
0.00919034 0.00934445 0.00968271 0.0102056 0.0110012 0.0120192 0.0132545 0.0145949 0.0157523 0.0166784 0.0168934 0.0166227 0.0156067 0.0143483 0.0128636 0.0117238 0.0107158 0.0101362 0.00973041 0.00965869 0.00961654 0.00972798 0.00968962 0.00971513 0.00965173 0.00959516 0.00952051 0.00942458 0.00933529 0.00923654 0.00917025 0.00913549 0.00849714 0.00864093 0.00902319 0.00965217 0.0106771 0.0120305 0.01376 0.015719 0.017447 0.0188659 0.0192209 0.0187942 0.017257 0.0153492 0.0131656 0.01159 0.0102563 0.00950576 0.00901494 0.00892651 0.00888057 0.00905248 0.00901805 0.00910684 0.00907031 0.00903222 0.00896246 0.00886113 0.00875821 0.00863644 0.00853996 0.00846951 0.00769192 0.00778584 0.00817543 0.00887383 0.0101193 0.0117777 0.0141097 0.0167859 0.0193697 0.021571 0.0222376 0.021616 0.0193836 0.0163926 0.0132791 0.0112027 0.00955303 0.00867557 0.00814997 0.00812389 0.00813115 0.00843513 0.00838785 0.0085532 0.00851313 0.00848067 0.00840383 0.00829084 0.00816751 0.00801035 0.00786325 0.00772827 0.00680681 0.00680704 0.00716086 0.0078586 0.00924869 0.0110931 0.0140603 0.0178655 0.0217612 0.0252922 0.0265291 0.0253418 0.0218677 0.0172491 0.0127179 0.0101996 0.00840279 0.00751943 0.00706375 0.00718935 0.00730627 0.00788722 0.00770549 0.00802767 0.0079973 0.00798969 0.00790935 0.0077785 0.00762229 0.0074088 0.00718236 0.00694743 0.00590331 0.00579544 0.00606218 0.00661863 0.00788312 0.00934694 0.0129383 0.0178948 0.0242484 0.0304682 0.0327394 0.0310202 0.0255536 0.0174884 0.0109981 0.00829775 0.00688948 0.00628113 0.00603464 0.00635009 0.00662465 0.00749109 0.00711335 0.00760909 0.00752759 0.00750573 0.00740951 0.00726336 0.0070831 0.00681801 0.00650732 0.00616416 0.0051266 0.00488902 0.00495572 0.00495516 0.00530114 0.00509595 0.00909307 0.0172946 0.0282888 0.0391805 0.0438482 0.038883 0.0300408 0.0171718 0.00654486 0.00391114 0.00423917 0.004601 0.00502554 0.00560451 0.00614173 0.00763561 0.00620845 0.00701908 0.00707608 0.00711806 0.00706894 0.00691288 0.00670442 0.00637379 0.00596504 0.00550762 0.00453524 0.00414244 0.00366118 0.00235029 0.000128021 -0.00367585 0.0026682 0.0153659 0.0340952 0.0515176 0.0557161 0.049902 0.0401786 0.0179276 -1.29227e-05 -0.00356571 0.000232952 0.00279254 0.00445613 0.00530844 0.0064044 0.00803069 0.00552409 0.00665606 0.00666053 0.0066471 0.00666662 0.00654511 0.00636019 0.00601267 0.00554494 0.00502011 0.00437385 0.00374482 0.00233087 -0.00137987 -0.00797371 -0.0171095 -0.00313632 0.0233028 0.046434 0.057031 0.0564586 0.0545748 0.0527369 0.0306243 -0.0022868 -0.0146663 -0.0059697 -1.03008e-05 0.0041852 0.0051946 0.00759008 0.010837 0.0031773 0.00472829 0.006185 0.00633029 0.00665162 0.00657139 0.00638957 0.00600624 0.00548623 0.00492926 0.00437276 0.00334645 0.000229039 -0.00637622 -0.0200296 -0.0300297 0.00849777 0.0439662 0.0538708 0.0507524 0.0477683 0.0485904 0.0559422 0.0468311 0.00694341 -0.0224442 -0.0127542 -0.00301044 0.00269399 0.00389817 0.0100009 0.0113907 0.00261899 0.00672575 0.0069434 0.00614691 0.00662269 0.00664015 0.00651864 0.00616516 0.00563837 0.0050801 0.00508506 0.0039999 0.00020775 -0.0071376 -0.0221516 -0.0263707 0.0235515 0.0476195 0.0455758 0.0403315 0.0376815 0.0397643 0.0492271 0.0506938 0.0210555 -0.0198247 -0.0160506 -0.00458757 0.001033 0.00356152 0.0096564 0.00826226 0.00397011 0.00933358 0.00956054 0.00859936 0.00808827 0.00764489 0.00725528 0.00682522 0.00628351 0.00578465 0.00611674 0.00515794 0.0019343 -0.00423655 -0.0149137 -0.0144177 0.0258795 0.0388003 0.0341327 0.0305019 0.0286719 0.0306209 0.0373132 0.0430457 0.027176 -0.00902778 -0.0109951 -0.00166293 0.00277712 0.00559284 0.00798715 0.00887946 0.00705903 0.00846457 0.0102778 0.0107663 0.00946686 0.00872888 0.0081305 0.00767158 0.00715699 0.0067202 0.00736726 0.00668377 0.00458797 0.000797667 -0.00544758 -0.00298813 0.0223168 0.0281249 0.023909 0.0218967 0.0206703 0.0217996 0.0251582 0.0304741 0.0248819 0.00223311 -0.00138026 0.00426238 0.00632679 0.00858115 0.0107847 0.0104594 0.00916034 0.00908241 0.0103034 0.0110362 0.00993063 0.00940901 0.00892958 0.00858728 0.00819491 0.00785167 0.00889607 0.00885272 0.0090707 0.0100493 0.0113887 0.00994575 0.00890666 0.0118475 0.0128915 0.0131321 0.0129732 0.0131685 0.0136224 0.0161664 0.0178882 0.0129239 0.0104316 0.0110883 0.0103909 0.0113139 0.0130875 0.0110943 0.0104374 0.0111913 0.0119752 0.0118535 0.0109235 0.0103857 0.00995131 0.0096556 0.00937729 0.00913684 0.0105854 0.0113372 0.0141598 0.0202749 0.0290792 0.0218426 -0.00547318 -0.00549705 0.00185155 0.00448977 0.00544984 0.00424262 0.00134157 -0.0011279 0.0073915 0.0251684 0.0256688 0.0196422 0.0154784 0.0137085 0.0140703 0.0123527 0.0130859 0.0134571 0.0133038 0.0124619 0.0116469 0.0111067 0.010772 0.0105934 0.0105114 0.0104584 0.0120939 0.0132361 0.0174776 0.0259282 0.0390301 0.0323388 -0.00868425 -0.0176782 -0.00834142 -0.00353751 -0.00191296 -0.00480677 -0.0121245 -0.0177946 0.000553007 0.0388241 0.0392644 0.0268153 0.0197812 0.0162362 0.0157821 0.0140033 0.0144063 0.0142893 0.014135 0.0132725 0.0125615 0.0119552 0.0116337 0.0115133 0.011585 0.0116893 0.0133065 0.0145083 0.0190771 0.0277586 0.0442756 0.0426966 -0.0059785 -0.0255498 -0.0182386 -0.0110992 -0.00913464 -0.0135533 -0.0246207 -0.0253256 0.00955822 0.0482234 0.0430559 0.029244 0.0219908 0.0177727 0.0166943 0.0146895 0.0148998 0.014903 0.015023 0.0141043 0.0133468 0.0126129 0.0122584 0.0121848 0.0124057 0.0126829 0.0143354 0.0155579 0.0194291 0.0272232 0.043081 0.0509031 0.0109113 -0.0283346 -0.0307038 -0.0201043 -0.0171036 -0.0216701 -0.029695 -0.018111 0.0227122 0.0466958 0.0376249 0.027523 0.0220014 0.0187145 0.0166665 0.0139227 0.0147015 0.0158468 0.0162254 0.0151803 0.014255 0.0133411 0.0128705 0.0127875 0.013097 0.013558 0.0146943 0.0156408 0.0177795 0.0227285 0.0317413 0.0423508 0.0241232 -0.0134733 -0.0289644 -0.0243496 -0.022735 -0.0276956 -0.025195 -0.000838217 0.0280267 0.0390066 0.0314653 0.0258601 0.0233175 0.0191939 0.0151284 0.0108168 0.0116858 0.015564 0.0180696 0.016889 0.0154916 0.0141927 0.0134082 0.0131823 0.013448 0.0139722 0.0148272 0.0155384 0.0164867 0.0185694 0.0218331 0.0267324 0.0175923 -0.00278552 -0.0160688 -0.0173643 -0.0177147 -0.0215356 -0.0139598 0.00765193 0.0241428 0.0281543 0.0253116 0.0249295 0.0256971 0.0223603 0.00999359 0.00119762 0.00813869 0.0186503 0.0212601 0.0185209 0.0163162 0.0147707 0.0137773 0.0134443 0.0136359 0.0141609 0.0145927 0.0151534 0.0155223 0.016146 0.0165675 0.0175958 0.0131293 0.000924222 -0.00734234 -0.00909916 -0.00977218 -0.0105205 -0.00507618 0.00609724 0.0158008 0.0204677 0.0222539 0.0296847 0.0319575 0.0189366 0.000213623 -0.00886944 -0.00566818 0.0165704 0.0309648 0.0258431 0.0190039 0.0160162 0.0142488 0.0136175 0.0136139 0.0140377 0.0141838 0.0145721 0.0146385 0.0145514 0.0137763 0.0129134 0.00974971 0.00380528 -0.00120521 -0.00397282 -0.00504434 -0.00469802 -0.000444204 0.00637061 0.0126761 0.0175209 0.0239039 0.0344798 0.0281987 0.00857956 -0.000403934 -0.00152876 -0.00462069 0.0137937 0.0286472 0.0250904 0.0184899 0.0157986 0.014127 0.0135189 0.0134537 0.013772 0.0136212 0.0138631 0.0137895 0.0134575 0.0124541 0.0110362 0.00853934 0.00469247 0.00162717 -2.72432e-05 -0.000659577 -0.000543664 0.00190751 0.00536471 0.0094413 0.0127558 0.0179695 0.0241033 0.0182975 0.0115809 0.0141094 0.0156723 0.0147133 0.0190758 0.0143827 0.013595 0.0135907 0.0133856 0.0130293 0.0129177 0.0130279 0.013322 0.0131222 0.0132206 0.0130498 0.0126344 0.0116879 0.0103591 0.00841873 0.00592803 0.00385755 0.00241954 0.00184197 0.00194192 0.00326707 0.00490712 0.00658889 0.00703938 0.00689678 0.00318635 0.00343231 0.0247511 0.0339438 0.0300672 0.0319558 0.0343668 0.00106461 0.00186879 0.00931008 0.0112454 0.0121455 0.0124461 0.0126967 0.0129413 0.0126743 0.0126551 0.0124259 0.0120012 0.0112014 0.0101049 0.00865563 0.00693694 0.00550447 0.00456101 0.00415984 0.00410335 0.00478109 0.00540774 0.0061512 0.00561187 0.00454318 -0.00236827 -0.00622826 0.0221947 0.0422644 0.0421077 0.0397283 0.029897 -0.00321699 0.00051074 0.0083761 0.0106345 0.0117589 0.0121858 0.0124428 0.0126068 0.0123224 0.0122266 0.0119837 0.0116025 0.010971 0.0101444 0.00910651 0.0079476 0.0069485 0.00622461 0.00588135 0.00580674 0.00611911 0.00637241 0.00663275 0.00643714 0.00609211 0.0040848 0.000445865 0.0125159 0.0322815 0.038727 0.0310467 0.0161703 0.00532116 0.00907276 0.0109381 0.0117178 0.0120538 0.0122302 0.012317 0.0123546 0.0120179 0.01188 0.0116517 0.0113373 0.010869 0.0102841 0.00957955 0.00882862 0.00817309 0.00770768 0.00746473 0.0073808 0.00750607 0.00757629 0.00763789 0.00750489 0.00740898 0.00742932 0.00638134 0.0133458 0.021648 0.0261502 0.0220907 0.0170758 0.0106494 0.0115861 0.0117469 0.0120273 0.012142 0.0121921 0.0121733 0.0121173 0.0117073 0.0115816 0.01141 0.0111931 0.0108903 0.0105262 0.0100938 0.00964751 0.00924339 0.00895014 0.00877292 0.00870495 0.00873055 0.00875093 0.0087407 0.00873241 0.00871346 0.00922249 0.00928675 0.0127764 0.017388 0.0197904 0.0175781 0.0149914 0.0122167 0.0123513 0.0120398 0.0120807 0.0120368 0.01199 0.0119112 0.011817 0.0114137 0.0113159 0.0112132 0.0111027 0.0109612 0.0108008 0.0106084 0.0104182 0.0102309 0.0101006 0.00998852 0.00992748 0.00986723 0.00981481 0.00971028 0.00967324 0.00957996 0.0100157 0.0101741 0.0122838 0.0142296 0.0156877 0.0148143 0.01405 0.0125087 0.0123935 0.0120734 0.0119955 0.0118776 0.0117594 0.0116387 0.0115199 0.0110688 0.0110312 0.0110208 0.0110325 0.0110573 0.0110961 0.0111281 0.0111678 0.0111727 0.0111848 0.0111249 0.011061 0.0109134 0.0107714 0.010561 0.0104552 0.0103117 0.010566 0.0107179 0.0118203 0.0128419 0.0136472 0.0131798 0.0127556 0.0119947 0.0118636 0.0116414 0.0115464 0.0114366 0.0113235 0.0112225 0.011131 0.0107061 0.010727 0.01081 0.0109481 0.0111456 0.0113919 0.0116577 0.0119386 0.0121442 0.0123093 0.0122956 0.0122113 0.0119365 0.0116436 0.0112468 0.0109732 0.0106768 0.0107086 0.010691 0.0112604 0.011677 0.0121387 0.0119577 0.011864 0.0114972 0.0113993 0.0112414 0.0111287 0.0110146 0.0108957 0.0108025 0.0107299 0.0102746 0.0103579 0.0105376 0.0108071 0.0111883 0.0116588 0.0121861 0.01274 0.0131816 0.0135288 0.0135721 0.0134522 0.0130144 0.0125116 0.0118687 0.0113788 0.0109032 0.0107272 0.0105822 0.0108118 0.0109789 0.0112201 0.0111126 0.0110529 0.0108543 0.010766 0.0106542 0.0105528 0.0104596 0.0103615 0.0102943 0.0102532 0.00978093 0.00991067 0.0101784 0.0105796 0.0111612 0.0118908 0.0127335 0.013636 0.014375 0.0149609 0.0150618 0.0148813 0.014194 0.0133888 0.0123883 0.0116103 0.0108898 0.0105042 0.010214 0.0102452 0.010262 0.010403 0.0103524 0.0103573 0.0102594 0.0101948 0.010109 0.0100105 0.00992022 0.00982421 0.00976257 0.0097327 
        </DataArray>
        <DataArray Name="vz" NumberOfComponents="1" type="Float32" format="ascii">
0 0 0 0 0 0 0 0 0 0 0 0 0 0 0 0 0 0 0 0 0 0 0 0 0 0 0 0 0 0 0 0 0 0 0 0 0 0 0 0 0 0 0 0 0 0 0 0 0 0 0 0 0 0 0 0 0 0 0 0 0 0 0 0 0 0 0 0 0 0 0 0 0 0 0 0 0 0 0 0 0 0 0 0 0 0 0 0 0 0 0 0 0 0 0 0 0 0 0 0 0 0 0 0 0 0 0 0 0 0 0 0 0 0 0 0 0 0 0 0 0 0 0 0 0 0 0 0 0 0 0 0 0 0 0 0 0 0 0 0 0 0 0 0 0 0 0 0 0 0 0 0 0 0 0 0 0 0 0 0 0 0 0 0 0 0 0 0 0 0 0 0 0 0 0 0 0 0 0 0 0 0 0 0 0 0 0 0 0 0 0 0 0 0 0 0 0 0 0 0 0 0 0 0 0 0 0 0 0 0 0 0 0 0 0 0 0 0 0 0 0 0 0 0 0 0 0 0 0 0 0 0 0 0 0 0 0 0 0 0 0 0 0 0 0 0 0 0 0 0 0 0 0 0 0 0 0 0 0 0 0 0 0 0 0 0 0 0 0 0 0 0 0 0 0 0 0 0 0 0 0 0 0 0 0 0 0 0 0 0 0 0 0 0 0 0 0 0 0 0 0 0 0 0 0 0 0 0 0 0 0 0 0 0 0 0 0 0 0 0 0 0 0 0 0 0 0 0 0 0 0 0 0 0 0 0 0 0 0 0 0 0 0 0 0 0 0 0 0 0 0 0 0 0 0 0 0 0 0 0 0 0 0 0 0 0 0 0 0 0 0 0 0 0 0 0 0 0 0 0 0 0 0 0 0 0 0 0 0 0 0 0 0 0 0 0 0 0 0 0 0 0 0 0 0 0 0 0 0 0 0 0 0 0 0 0 0 0 0 0 0 0 0 0 0 0 0 0 0 0 0 0 0 0 0 0 0 0 0 0 0 0 0 0 0 0 0 0 0 0 0 0 0 0 0 0 0 0 0 0 0 0 0 0 0 0 0 0 0 0 0 0 0 0 0 0 0 0 0 0 0 0 0 0 0 0 0 0 0 0 0 0 0 0 0 0 0 0 0 0 0 0 0 0 0 0 0 0 0 0 0 0 0 0 0 0 0 0 0 0 0 0 0 0 0 0 0 0 0 0 0 0 0 0 0 0 0 0 0 0 0 0 0 0 0 0 0 0 0 0 0 0 0 0 0 0 0 0 0 0 0 0 0 0 0 0 0 0 0 0 0 0 0 0 0 0 0 0 0 0 0 0 0 0 0 0 0 0 0 0 0 0 0 0 0 0 0 0 0 0 0 0 0 0 0 0 0 0 0 0 0 0 0 0 0 0 0 0 0 0 0 0 0 0 0 0 0 0 0 0 0 0 0 0 0 0 0 0 0 0 0 0 0 0 0 0 0 0 0 0 0 0 0 0 0 0 0 0 0 0 0 0 0 0 0 0 0 0 0 0 0 0 0 0 0 0 0 0 0 0 0 0 0 0 0 0 0 0 0 0 0 0 0 0 0 0 0 0 0 0 0 0 0 0 0 0 0 0 0 0 0 0 0 0 0 0 0 0 0 0 0 0 0 0 0 0 0 0 0 0 0 0 0 0 0 0 0 0 0 0 0 0 0 0 0 0 0 0 0 0 0 0 0 0 0 0 0 0 0 0 0 0 0 0 0 0 0 0 0 0 0 0 0 0 0 0 0 0 0 0 0 0 0 0 0 0 0 0 0 0 0 0 0 0 0 0 0 0 0 0 0 0 0 0 0 0 0 0 0 0 0 0 0 0 0 0 0 0 0 0 0 0 0 0 0 0 0 0 0 0 0 0 0 0 0 0 0 0 0 0 0 0 0 0 0 0 0 0 0 0 0 0 0 0 0 0 0 0 0 0 0 0 0 0 0 0 0 0 0 0 0 0 0 0 0 0 0 0 0 0 0 0 0 0 0 0 0 0 0 0 0 0 0 0 0 0 0 0 0 0 0 0 0 0 0 0 0 0 0 0 0 0 0 0 0 0 0 0 0 0 0 0 0 0 0 0 0 0 0 0 0 0 0 0 0 0 0 0 0 0 0 0 0 0 0 0 0 0 0 0 0 0 0 0 0 0 0 0 0 0 0 0 0 0 0 0 0 0 0 0 0 0 0 0 0 0 0 0 0 0 0 0 0 0 0 0 0 0 0 0 0 0 0 0 0 0 0 0 0 0 0 0 0 0 0 0 0 0 0 0 0 0 0 0 0 0 0 0 0 0 0 0 0 0 
        </DataArray>
        <DataArray Name="p" NumberOfComponents="1" type="Float32" format="ascii">