<?xml version="1.0"?>
<VTKFile type="StructuredGrid" version="0.1" byte_order="LittleEndian">
  <StructuredGrid WholeExtent="0 32 0 32 0 1">
    <Piece Extent="0 32 0 32 0 1">
      <PointData>
      </PointData>
      <CellData>
        <DataArray Name="vx" NumberOfComponents="1" type="Float32" format="ascii">
0.0243458 0.0251564 0.0259205 0.0266133 0.0271076 0.0273012 0.0270726 0.0262399 0.0247997 0.0227968 0.0203775 0.0179134 0.015685 0.0140309 0.0130469 0.0126617 0.0127736 0.0131699 0.013803 0.0145077 0.0153098 0.0161452 0.0169909 0.0178081 0.0185385 0.019256 0.019944 0.0206331 0.0213331 0.0220476 0.0227869 0.0235583 0.0243733 0.0253458 0.0263009 0.0272475 0.0280041 0.0284767 0.028476 0.0276954 0.0260882 0.0236506 0.020541 0.0173513 0.0144881 0.0125262 0.0115828 0.0114181 0.0118827 0.0125987 0.0135561 0.0145002 0.0154611 0.0163171 0.0170883 0.0177915 0.0184409 0.0191045 0.019751 0.0204313 0.0211238 0.0218606 0.0226351 0.0234821 0.0243253 0.0254614 0.0266133 0.0278505 0.0289393 0.0298386 0.0302751 0.0297091 0.0279505 0.0249363 0.0207928 0.0165151 0.0127798 0.0104563 0.00968542 0.00993927 0.0109243 0.0120309 0.0133562 0.01454 0.0156733 0.0165567 0.0172459 0.017821 0.0183763 0.0189745 0.0195664 0.0202231 0.0208931 0.021635 0.0224294 0.02334 0.0240634 0.0253182 0.0266228 0.0281823 0.0297268 0.0314296 0.0328494 0.0329597 0.0312704 0.027411 0.0214946 0.0153024 0.00994802 0.00712691 0.00695434 0.00813043 0.0100573 0.0117027 0.0134422 0.0148516 0.0161173 0.016958 0.0174794 0.0178475 0.0182957 0.0188179 0.0193506 0.0199721 0.0206018 0.0213215 0.022101 0.023034 0.0235399 0.0248363 0.0262291 0.0281542 0.0304155 0.033622 0.0369868 0.0383977 0.0366647 0.031358 0.0226009 0.0135463 0.00611334 0.00245161 0.00303785 0.0057831 0.0092547 0.0116792 0.0138768 0.0154554 0.016825 0.0176128 0.0178161 0.0178319 0.0181888 0.0186446 0.0191231 0.0196971 0.0202631 0.0209227 0.0216413 0.0225386 0.0225417 0.0237399 0.0251394 0.0275983 0.031122 0.037209 0.043834 0.0468748 0.0448519 0.0374363 0.0251127 0.0124896 0.00137191 -0.00405248 -0.00263635 0.00237486 0.00850954 0.0122403 0.0150326 0.0168074 0.0181252 0.0185794 0.0181448 0.0175827 0.0179345 0.0184045 0.0188667 0.0193863 0.0198513 0.0203851 0.0209579 0.0217037 0.0212035 0.0222021 0.0235972 0.0267425 0.0320652 0.0420342 0.0520185 0.0549171 0.0493865 0.0387125 0.0272463 0.0167603 0.00436724 -0.00469484 -0.00714839 -0.00158406 0.00734685 0.0128221 0.0163883 0.0185596 0.0200743 0.0208634 0.0192396 0.0171108 0.0176543 0.0181999 0.0186518 0.0190916 0.0194142 0.0197608 0.0201199 0.0206235 0.0192777 0.0198537 0.0210997 0.0247489 0.0316414 0.0447069 0.0544919 0.0508693 0.0380222 0.0276572 0.0250279 0.0242692 0.0202583 0.00971754 -0.00386588 -0.00251061 0.00794665 0.014989 0.0192919 0.0224347 0.0237353 0.0237471 0.020912 0.0169154 0.0174759 0.0183809 0.0187225 0.0189676 0.0190153 0.0190369 0.0190449 0.0191271 0.0172478 0.0172391 0.0179288 0.0206168 0.0259775 0.0337205 0.0334443 0.0185496 0.00918973 0.0116737 0.0197974 0.0289718 0.0341273 0.0307922 0.0137101 0.00557777 0.0119289 0.0181972 0.0218701 0.0250197 0.024184 0.0186698 0.0195549 0.0195823 0.0182496 0.0193968 0.0190506 0.0189184 0.0186114 0.0182763 0.0179209 0.0175553 0.0146545 0.0134592 0.0126263 0.0117819 0.0118062 0.00763227 -0.00407884 -0.0123809 -0.006793 0.00421945 0.0174644 0.0300595 0.0408152 0.0469464 0.0418404 0.0314142 0.0255584 0.0269069 0.0265674 0.0275504 0.0252761 0.0195586 0.0220264 0.024294 0.0225907 0.0219345 0.0204509 0.0193979 0.0184629 0.0175654 0.0166906 0.0156668 0.0127401 0.0107162 0.00864914 0.00471723 -0.000217778 -0.0101926 -0.0204394 -0.0208616 -0.00845331 0.00430283 0.0174504 0.0298782 0.0424802 0.0547672 0.0606346 0.0535152 0.0411128 0.0352808 0.0294463 0.0220155 0.0171721 0.0157698 0.0212632 0.0268572 0.0243793 0.0220211 0.0202536 0.01903 0.0179191 0.0167817 0.015626 0.0141925 0.0107909 0.00756813 0.00328952 -0.00555613 -0.0189718 -0.0383859 -0.0392868 -0.0243366 -0.00954508 0.00462114 0.0171016 0.0291164 0.0424271 0.0575049 0.0728951 0.0770861 0.0628211 0.047032 0.0367037 0.0284708 0.0223162 0.0184032 0.0228577 0.0271333 0.0239139 0.0221248 0.0204162 0.0189549 0.017647 0.0162139 0.0147448 0.0128521 0.0101117 0.00647427 0.00128079 -0.00956025 -0.0264304 -0.0478568 -0.0446529 -0.0238217 -0.00885178 0.00530827 0.0173104 0.02907 0.0425094 0.0582424 0.0777672 0.0875271 0.0736032 0.0541449 0.0423957 0.0351961 0.0323966 0.0332355 0.0274288 0.0233384 0.0232257 0.0208553 0.0198282 0.0184199 0.0172451 0.0158324 0.0143427 0.0123567 0.0105788 0.0073484 0.00313163 -0.00563268 -0.0182815 -0.0377308 -0.0380168 -0.0214941 -0.00785088 0.00544633 0.0173101 0.0289409 0.0416462 0.0563509 0.0707436 0.0735934 0.0615711 0.0483846 0.0395371 0.0344308 0.0328199 0.034358 0.027857 0.0222597 0.0222388 0.0204928 0.0195983 0.018293 0.0171767 0.0158562 0.0144654 0.0126171 0.0120974 0.00981092 0.00751717 0.00288223 -0.00232009 -0.0160579 -0.0227448 -0.017846 -0.00720452 0.00505473 0.0180368 0.0306814 0.0430096 0.0558572 0.0611643 0.0547181 0.0452063 0.0391926 0.0346742 0.0315945 0.0298329 0.0299213 0.0264725 0.0234171 0.0222855 0.0205996 0.0195377 0.0183507 0.0173556 0.0162644 0.0151287 0.0136528 0.0141528 0.013005 0.0125543 0.01271 0.0144963 0.0140331 0.00382575 -0.00835851 -0.00469597 0.00488322 0.0196678 0.0337067 0.0449561 0.0520825 0.0495684 0.0387203 0.0319929 0.0307373 0.0295134 0.027755 0.0267318 0.0274276 0.0258215 0.0238766 0.0223735 0.0208684 0.0196861 0.0186774 0.0178245 0.0170034 0.0161697 0.0151537 0.0163373 0.0159449 0.0163807 0.0187167 0.0238257 0.0299751 0.023188 0.00554905 -0.0019056 0.00430904 0.0215687 0.0372054 0.0440891 0.0400264 0.0277052 0.0183726 0.0192759 0.022587 0.0242171 0.0230324 0.0230366 0.025347 0.0258684 0.025048 0.0230861 0.0216462 0.0202414 0.0193462 0.0185865 0.0180159 0.017468 0.0168924 0.0185358 0.0186583 0.0194395 0.02244 0.0282263 0.0377596 0.0384699 0.0266085 0.015399 0.0135754 0.023828 0.0325417 0.030001 0.0156945 0.00340715 0.00553135 0.0129229 0.0178832 0.0200167 0.0171438 0.0188203 0.0250273 0.027729 0.027417 0.0241595 0.0224399 0.0207771 0.0201162 0.0195163 0.0192039 0.0189144 0.0187111 0.020603 0.0211429 0.0221338 0.02507 0.0303514 0.0408326 0.0484518 0.0506272 0.0486789 0.037248 0.0238013 0.0105722 -0.00159815 -0.00707408 -0.00629594 0.00184714 0.0107847 0.0146135 0.0161632 0.0124173 0.0166727 0.0243623 0.0276252 0.0283568 0.0250113 0.0238322 0.0216501 0.0210278 0.0204937 0.0203811 0.0203061 0.0204272 0.0223359 0.0230565 0.0240178 0.026192 0.0296552 0.0365981 0.043566 0.0480174 0.0480605 0.0388353 0.0194804 0.00216212 -0.00580344 -0.00719456 -0.00232002 0.00492764 0.0117888 0.0140808 0.0174676 0.0188743 0.0154436 0.0152992 0.0196828 0.017959 0.0175024 0.0210305 0.0208336 0.0213749 0.0213474 0.0215374 0.0216443 0.0219559 0.0236014 0.0244682 0.0254919 0.0272061 0.0294569 0.0333503 0.0374213 0.0394785 0.0380768 0.0318831 0.0193341 0.00815848 0.00326775 0.00162457 0.00452489 0.00938583 0.0145063 0.0181649 0.0246324 0.0325337 0.0293396 0.0200294 0.0130057 0.0100859 0.0130902 0.01669 0.0195491 0.0210774 0.0217302 0.0222403 0.0225608 0.0230469 0.0245081 0.0253297 0.0262753 0.0275949 0.0290484 0.0310671 0.032993 0.0337711 0.0324028 0.0279107 0.02019 0.0129914 0.00881965 0.00748108 0.00896221 0.0122722 0.0153574 0.0209232 0.0212401 0.0298683 0.0350075 0.024485 0.0130905 0.00760599 0.0116665 0.0149679 0.0194879 0.0215865 0.0225728 0.0231527 0.0234968 0.0239611 0.0249156 0.0256742 0.0265259 0.0275628 0.0285647 0.0296 0.0302938 0.0300759 0.0284904 0.0252689 0.0202748 0.0155963 0.0125961 0.0112246 0.0115489 0.0136313 0.015716 0.0217372 0.0213516 0.02988 0.0373471 0.0279331 0.0149281 0.0085316 0.0139386 0.0160422 0.0202015 0.0219216 0.0229107 0.0234848 0.0238869 0.0243635 0.0251526 0.0257549 0.0264318 0.0271881 0.0278478 0.0283531 0.0284624 0.0278658 0.0263532 0.0238174 0.0203455 0.017025 0.0145561 0.0132578 0.0131381 0.0144342 0.0167967 0.0215851 0.0295126 0.0361112 0.0353435 0.0308525 0.0195141 0.0127552 0.0183926 0.0207743 0.0229612 0.023297 0.0238971 0.0240911 0.0243747 0.0247026 0.0250805 0.0255854 0.0261257 0.0266649 0.0270764 0.0272648 0.0270747 0.0263148 0.0249026 0.0228553 0.0202632 0.017747 0.0156744 0.0142664 0.0134864 0.0134367 0.0139023 0.014572 0.0173907 0.016839 0.0179635 0.0234737 0.0283198 0.0331759 0.0324515 0.028318 0.0258726 0.0244707 0.0242677 0.0241837 0.0243831 0.0246683 0.024951 0.0253696 0.0257896 0.0261579 0.0263845 0.0263786 0.0260405 0.0252529 0.0239863 0.0222816 0.0202394 0.0182309 0.016447 0.0151009 0.0141035 0.0135045 0.0130721 0.0120007 0.0103901 0.00528003 0.00509982 0.012651 0.0248514 0.0332486 0.0301946 0.0267234 0.0249486 0.024073 0.0240517 0.0240435 0.0242899 0.0245696 0.0247272 0.0251177 0.0254737 0.0257395 0.0258511 0.0257309 0.0253162 0.0245332 0.0233813 0.0219106 0.020209 0.0185177 0.0169439 0.015655 0.0145598 0.013721 0.0130043 0.0119688 0.0107832 0.00757938 0.00637982 0.0107611 0.0198284 0.0263034 0.0255958 0.0244428 0.0237854 0.0234155 0.0235404 0.023664 0.0239918 0.0243279 0.0245359 0.0249229 0.02525 0.0254646 0.0255167 0.0253402 0.0248931 0.0241249 0.0230492 0.021715 0.0202037 0.0186931 0.017259 0.0160518 0.014997 0.0141528 0.0134074 0.0125301 0.0117124 0.0101408 0.0100526 0.0128994 0.0179668 0.0218106 0.0221692 0.0223254 0.0224568 0.022589 0.0229598 0.0232708 0.0237038 0.0241081 0.0243793 0.0247967 0.0251369 0.0253508 0.0253936 0.0252041 0.0247492 0.0239865 0.0229378 0.0216504 0.0202064 0.0187572 0.0173777 0.0162111 0.0152109 0.0144452 0.0138138 0.0132315 0.0128149 0.0122336 0.0124641 0.0141954 0.0170644 0.0195348 0.0204193 0.021058 0.0215501 0.0219435 0.0224576 0.0229067 0.0234259 0.0239045 0.024289 0.0247609 0.0251491 0.0254075 0.0254864 0.025323 0.0248809 0.0241121 0.0230414 0.0217145 0.0202227 0.0187194 0.0173003 0.0161166 0.0151578 0.0144803 0.0140003 0.0136632 0.0135263 0.0134495 0.0139084 0.0151405 0.016905 0.0185411 0.0194517 0.0202245 0.0208781 0.0214425 0.0220612 0.0226189 0.0232092 0.023758 0.0242648 0.0248204 0.0252948 0.0256447 0.0258066 0.0257075 0.0252978 0.0245081 0.0233623 0.0219072 0.0202503 0.018575 0.0170156 0.0157491 0.0147994 0.014206 0.0138895 0.0137916 0.0139036 0.0141424 0.0146957 0.0156484 0.0168757 0.0180813 0.0189594 0.0197456 0.0204546 0.021098 0.0217675 0.0223962 0.0230428 0.0236627 0.0242894 0.0249576 0.0255571 0.0260508 0.0263493 0.0263659 0.0260224 0.0252083 0.0239408 0.0222635 0.0203058 0.0183182 0.0164909 0.0150648 0.0140997 0.0135927 0.0134648 0.0135991 0.0139587 0.0144382 0.0151086 0.0159635 0.0169323 0.0178896 0.0186898 0.0194479 0.0201594 0.02084 0.0215342 0.0222134 0.0229086 0.023602 
        </DataArray>
        <DataArray Name="vy" NumberOfComponents="1" type="Float32" format="ascii">
0.0088705 0.00899398 0.00934354 0.009895 0.010799 0.0119263 0.0133863 0.0149029 0.0163599 0.0174254 0.0179591 0.0176855 0.0168246 0.0153432 0.0138196 0.0122992 0.0111332 0.0102786 0.00979568 0.00963942 0.00970618 0.0099077 0.0100292 0.010073 0.00996855 0.00987522 0.0096789 0.00951343 0.00930594 0.00912744 0.00896955 0.00886811 0.00802246 0.00813313 0.00853757 0.00920463 0.0103759 0.0118717 0.0139113 0.0160913 0.018241 0.0198367 0.0206704 0.0202375 0.0189465 0.0166999 0.0144931 0.0123174 0.0107635 0.00961272 0.00900338 0.00878218 0.00884066 0.00907283 0.00924439 0.00934301 0.00927555 0.00919343 0.00900275 0.00882206 0.00859816 0.00838759 0.00819436 0.00804962 0.00700696 0.00704417 0.00744193 0.0081621 0.0095705 0.0114237 0.0141815 0.017259 0.020447 0.0229538 0.0243223 0.0237106 0.0217275 0.018189 0.0149758 0.011928 0.00997755 0.00855434 0.00790779 0.00770924 0.00790739 0.00826662 0.00857438 0.00870996 0.00865982 0.00856076 0.00835143 0.00813678 0.00787603 0.00760953 0.00734776 0.0071172 0.00592497 0.00584774 0.00618398 0.00688333 0.0084248 0.010531 0.0140798 0.0183682 0.0230672 0.026925 0.0291117 0.0281403 0.025079 0.0197314 0.01511 0.0110354 0.00876507 0.00715064 0.00654894 0.00643035 0.00686056 0.0074549 0.00803521 0.00818808 0.00814132 0.00800228 0.00775918 0.00749878 0.00719099 0.0068538 0.0065012 0.00615576 0.00471709 0.00444552 0.00456887 0.00501247 0.00631691 0.00825772 0.0127022 0.0187721 0.0261045 0.0326965 0.0365364 0.0351983 0.0300844 0.0210571 0.0140499 0.00867217 0.00644535 0.00505504 0.00480499 0.00496689 0.00588016 0.00683564 0.00775636 0.00781994 0.00769845 0.00747969 0.00718696 0.00687685 0.00651861 0.00609961 0.00562982 0.00513196 0.00366639 0.00317495 0.00291611 0.00272333 0.00299471 0.00394244 0.00935428 0.0184854 0.0303032 0.0409091 0.0469726 0.0444368 0.0363194 0.022773 0.0118949 0.00477695 0.0030271 0.00247025 0.00286616 0.00335646 0.00479998 0.00628827 0.00808305 0.00771596 0.00740926 0.00707844 0.00673224 0.00637703 0.0059794 0.00548705 0.00490705 0.00426749 0.00265888 0.00179772 0.00067283 -0.00100592 -0.00331599 -0.0044691 0.00327985 0.0176563 0.0357196 0.0523136 0.0613167 0.058634 0.0470598 0.024829 0.00770184 -0.00265007 -0.0033852 -0.00160767 0.000359838 0.00179131 0.00434579 0.00662615 0.00890004 0.00779978 0.00686196 0.00647007 0.00616049 0.00586353 0.00549411 0.0049711 0.00429456 0.00351344 0.00213807 0.000835744 -0.0015734 -0.0056516 -0.0123128 -0.0161323 -0.00367582 0.0196257 0.0475206 0.0630715 0.0693032 0.0671724 0.0578426 0.0345386 0.00810879 -0.0097613 -0.0113205 -0.00666004 -0.0028139 -0.00071134 0.00262449 0.0065874 0.0129925 0.00885624 0.0064624 0.00618158 0.00590324 0.00568107 0.00534599 0.00481316 0.00407905 0.00321367 0.00186967 -7.89681e-05 -0.00434927 -0.0115487 -0.0234933 -0.027334 -0.00174764 0.0345582 0.0591086 0.06398 0.0644227 0.0631655 0.0611762 0.0492897 0.0203153 -0.0138974 -0.0209971 -0.0129326 -0.00681024 -0.00274661 0.00381343 0.00882403 0.0157223 0.010864 0.00536257 0.00516962 0.00543004 0.00551485 0.00535737 0.00490302 0.00416343 0.00323709 0.00251726 0.00029747 -0.0048569 -0.01332 -0.0255787 -0.0225229 0.00978836 0.0437682 0.0541748 0.0534584 0.0523515 0.0530431 0.056343 0.0545942 0.033089 -0.00834162 -0.0239942 -0.0166275 -0.00965338 -0.0040684 0.00931024 0.0117819 0.0116197 0.0114116 0.00572371 0.00596638 0.0063446 0.00629756 0.00604251 0.00557243 0.00484665 0.0039535 0.00394939 0.00184734 -0.0029992 -0.0109774 -0.0207465 -0.0118239 0.0192244 0.0397355 0.0416446 0.0399846 0.0386168 0.0400254 0.0444324 0.0480983 0.037035 0.0032058 -0.0174938 -0.0137747 -0.00653547 -0.000638507 0.01096 0.0118343 0.00937699 0.0107342 0.00759326 0.00762918 0.0078025 0.00746931 0.00709133 0.00662664 0.00599005 0.00522313 0.00606702 0.00462616 0.0014456 -0.00385942 -0.00944644 -0.00205697 0.0201199 0.0299715 0.0283827 0.0272893 0.0265002 0.0278148 0.0311578 0.035818 0.0335955 0.0116425 -0.00578594 -0.00469603 0.001998 0.00849852 0.0155351 0.00998965 0.000355889 0.00900683 0.0105198 0.00942507 0.00925611 0.00870764 0.00831642 0.00793597 0.00747491 0.00693771 0.0090971 0.00927991 0.00983377 0.0109266 0.0110726 0.00799841 0.00655695 0.0107483 0.0128692 0.013702 0.0142247 0.0149688 0.016256 0.01766 0.0183594 0.0132387 0.0122232 0.0118958 0.012399 0.0147577 0.0192424 0.0114064 -2.67111e-05 0.0099215 0.0126124 0.0116594 0.0109107 0.0102079 0.00975968 0.00948464 0.00927842 0.00914937 0.011944 0.0136019 0.0175062 0.0241842 0.0286193 0.0165755 -0.00444854 -0.00616662 -0.00108186 0.00104136 0.00243389 0.0025011 0.00183302 7.69632e-05 0.00426054 0.0155972 0.0280263 0.0265532 0.0210499 0.0183668 0.0181297 0.0147541 0.00971489 0.0131052 0.0130108 0.0126847 0.0118475 0.011329 0.0109827 0.0108913 0.0109714 0.0112417 0.0142933 0.0168033 0.0227371 0.0325467 0.0426996 0.0284451 -0.0102293 -0.0195508 -0.0141824 -0.0112239 -0.00924572 -0.00914387 -0.0109919 -0.011634 0.00181464 0.0221569 0.0370772 0.033855 0.0260669 0.0215074 0.0190334 0.0165141 0.0129682 0.0152523 0.0145447 0.0141267 0.0131055 0.0125243 0.0121586 0.0121655 0.0124696 0.0130512 0.0157212 0.0182421 0.0242197 0.0340394 0.0466353 0.0374485 -0.00194301 -0.0212104 -0.0239686 -0.0241844 -0.0235753 -0.0226979 -0.023333 -0.0187097 0.00571503 0.031504 0.0437906 0.0374489 0.0286247 0.0235543 0.0197185 0.0180831 0.0159643 0.0171049 0.0159337 0.0153666 0.0141927 0.0135223 0.0131038 0.0131498 0.0135789 0.0143147 0.0164238 0.0184929 0.023119 0.0308267 0.0417476 0.0393071 0.0122768 -0.0123005 -0.0273694 -0.0351759 -0.0378606 -0.0340504 -0.0293265 -0.0172472 0.0162937 0.0399581 0.0446235 0.036398 0.028558 0.0244605 0.0188836 0.0178848 0.0166898 0.018713 0.0175862 0.0168083 0.015291 0.0143784 0.0138075 0.0138193 0.01429 0.0150913 0.0166453 0.0182315 0.02135 0.0266048 0.034927 0.0377351 0.0232622 0.00455589 -0.0230653 -0.0478484 -0.0578664 -0.045844 -0.0253136 -0.00139367 0.0270119 0.0396495 0.0389631 0.032924 0.0279759 0.0253407 0.0169471 0.0156562 0.01574 0.0200402 0.019056 0.018243 0.0163987 0.0152065 0.0144157 0.0143016 0.0147003 0.0154774 0.0164467 0.0175847 0.0193089 0.0220407 0.0262845 0.0292153 0.0226288 0.0103678 -0.0143243 -0.0419592 -0.0560094 -0.0386093 -0.0136571 0.00908468 0.0254151 0.0319866 0.0316581 0.0295967 0.0285074 0.0258819 0.00916464 0.0115994 0.014019 0.0223676 0.0223291 0.0205198 0.0175649 0.0157503 0.014688 0.0144378 0.0147504 0.0154651 0.0159624 0.0167389 0.0175066 0.0184627 0.0193934 0.0197933 0.0142521 0.00484774 -0.0092689 -0.0241407 -0.0326298 -0.0211538 -0.00773342 0.00546058 0.0172167 0.0232416 0.0260342 0.0283049 0.0302628 0.0261274 0.00448904 0.00429623 0.00988252 0.0239461 0.0226477 0.0217532 0.0189476 0.0164043 0.0150142 0.0145313 0.0146652 0.0152175 0.0153129 0.0158441 0.0161337 0.0162516 0.0157697 0.0148848 0.0108761 0.00477362 -0.00459156 -0.0137154 -0.0183523 -0.0129779 -0.0045588 0.00504623 0.0127534 0.0178469 0.0221248 0.0237222 0.0237724 0.0264328 0.0134466 0.00720104 0.0121564 0.0248298 0.0186374 0.0183427 0.0172447 0.0154492 0.0145089 0.0141557 0.0142947 0.014746 0.0145829 0.0148747 0.0148545 0.0145298 0.0134542 0.0118998 0.00854458 0.00425582 -0.00124512 -0.00607825 -0.00878974 -0.00558473 -0.0011296 0.00444121 0.00946687 0.0134321 0.0173332 0.0181426 0.0155799 0.0215938 0.0192094 0.0186406 0.020947 0.0235238 0.0160936 0.014417 0.0145135 0.0140622 0.0138425 0.0137163 0.0138832 0.0142107 0.0139165 0.0140272 0.013851 0.0133823 0.0122768 0.0107495 0.0081479 0.00509632 0.00145499 -0.00155209 -0.0030814 -0.00154101 0.00114775 0.00477357 0.00808612 0.0112108 0.0140565 0.0175467 0.0161678 0.0113068 0.0188849 0.0273056 0.0303181 0.0228497 0.0149413 0.00988137 0.0113591 0.012296 0.0130192 0.0131907 0.0134559 0.0136946 0.0133034 0.0132782 0.0130111 0.0124952 0.011501 0.0101698 0.00820307 0.00602565 0.00369338 0.00190851 0.000980883 0.00184256 0.00329618 0.0053218 0.00713077 0.00878917 0.00947556 0.0107246 0.00835783 0.00544536 0.0235202 0.0403696 0.0436237 0.0231183 0.00975282 0.00523278 0.00827819 0.0108206 0.0122115 0.0126884 0.0130216 0.0132005 0.0128508 0.0127188 0.0124124 0.0119262 0.011115 0.0100704 0.00865111 0.00712986 0.00557614 0.00441984 0.00384079 0.00424419 0.00505634 0.00619243 0.00707902 0.00768203 0.00717666 0.00541099 0.00173403 0.00433071 0.0235614 0.0421932 0.0464525 0.023309 0.0078162 0.00718049 0.00974856 0.0116292 0.0124282 0.0127123 0.0128547 0.012887 0.0124113 0.0122406 0.0119525 0.0115432 0.0109283 0.0101626 0.00919021 0.00817458 0.00718984 0.0064773 0.00612317 0.0063331 0.00677994 0.00740722 0.00789385 0.00824276 0.00810433 0.00727791 0.00573131 0.00576783 0.0174826 0.0302847 0.0344074 0.0213766 0.0127115 0.0113968 0.0117341 0.0122407 0.0124669 0.0125503 0.0125657 0.0125153 0.0120438 0.0118632 0.0116221 0.0113168 0.0108983 0.0103964 0.00978763 0.00916408 0.00857413 0.00815108 0.00793963 0.00803178 0.00825206 0.00856447 0.00875224 0.00885808 0.00872374 0.00841516 0.00825569 0.00935421 0.0160989 0.0223264 0.0246282 0.0181498 0.0139329 0.0128943 0.0125509 0.0125998 0.012517 0.0124488 0.0123304 0.0121995 0.0116394 0.0114978 0.0113408 0.0111648 0.0109455 0.0106929 0.0103978 0.0101003 0.00982359 0.00962834 0.0095281 0.00956415 0.00964065 0.00975118 0.00977469 0.00977562 0.00968014 0.0096067 0.00981905 0.0105553 0.0140493 0.0173145 0.0188563 0.0161588 0.0140803 0.0132068 0.012636 0.0124519 0.0122354 0.0120953 0.0119316 0.0117863 0.0112267 0.0111394 0.0110801 0.0110441 0.0110249 0.0110145 0.0110077 0.0110019 0.0109936 0.0109896 0.0109792 0.0109715 0.0109191 0.0108385 0.0106749 0.0105156 0.0103256 0.0102584 0.0104916 0.0111068 0.0130442 0.0146177 0.0154504 0.0142493 0.0132604 0.0127384 0.012287 0.0120931 0.0118466 0.0116769 0.0114933 0.0113486 0.0107581 0.0107406 0.0107926 0.010907 0.0110969 0.011335 0.0116203 0.0119074 0.0121659 0.0123508 0.0124291 0.0123783 0.0121921 0.0119013 0.0115263 0.0111692 0.0108297 0.0106559 0.0107063 0.0110464 0.012011 0.0128881 0.0133838 0.0129412 0.0124212 0.0120948 0.0117286 0.0115343 0.011293 0.011123 0.0109532 0.0108336 0.0102245 0.0102722 0.0104348 0.0107007 0.0111115 0.0116141 0.0122221 0.0128352 0.0133986 0.0138016 0.0139871 0.0138857 0.0135389 0.0129754 0.012324 0.0116861 0.011132 0.0107779 0.0106455 0.0107795 0.0112507 0.0117092 0.0119689 0.0118069 0.0115328 0.0113415 0.0110685 0.0108964 0.0106759 0.0105112 0.0103562 0.0102575 0.00960844 0.00970918 0.00997639 0.0103932 0.0110429 0.0118409 0.0128289 0.013836 0.0147764 0.0154492 0.0157715 0.0155935 0.0150322 0.0140993 0.0130811 0.0120692 0.0112379 0.0106527 0.0103278 0.0102905 0.0104759 0.0107542 0.0109075 0.0108901 0.0107261 0.0106011 0.0103775 0.0102142 0.0100072 0.00984337 0.00969726 0.00960982 
        </DataArray>
        <DataArray Name="vz" NumberOfComponents="1" type="Float32" format="ascii">
0 0 0 0 0 0 0 0 0 0 0 0 0 0 0 0 0 0 0 0 0 0 0 0 0 0 0 0 0 0 0 0 0 0 0 0 0 0 0 0 0 0 0 0 0 0 0 0 0 0 0 0 0 0 0 0 0 0 0 0 0 0 0 0 0 0 0 0 0 0 0 0 0 0 0 0 0 0 0 0 0 0 0 0 0 0 0 0 0 0 0 0 0 0 0 0 0 0 0 0 0 0 0 0 0 0 0 0 0 0 0 0 0 0 0 0 0 0 0 0 0 0 0 0 0 0 0 0 0 0 0 0 0 0 0 0 0 0 0 0 0 0 0 0 0 0 0 0 0 0 0 0 0 0 0 0 0 0 0 0 0 0 0 0 0 0 0 0 0 0 0 0 0 0 0 0 0 0 0 0 0 0 0 0 0 0 0 0 0 0 0 0 0 0 0 0 0 0 0 0 0 0 0 0 0 0 0 0 0 0 0 0 0 0 0 0 0 0 0 0 0 0 0 0 0 0 0 0 0 0 0 0 0 0 0 0 0 0 0 0 0 0 0 0 0 0 0 0 0 0 0 0 0 0 0 0 0 0 0 0 0 0 0 0 0 0 0 0 0 0 0 0 0 0 0 0 0 0 0 0 0 0 0 0 0 0 0 0 0 0 0 0 0 0 0 0 0 0 0 0 0 0 0 0 0 0 0 0 0 0 0 0 0 0 0 0 0 0 0 0 0 0 0 0 0 0 0 0 0 0 0 0 0 0 0 0 0 0 0 0 0 0 0 0 0 0 0 0 0 0 0 0 0 0 0 0 0 0 0 0 0 0 0 0 0 0 0 0 0 0 0 0 0 0 0 0 0 0 0 0 0 0 0 0 0 0 0 0 0 0 0 0 0 0 0 0 0 0 0 0 0 0 0 0 0 0 0 0 0 0 0 0 0 0 0 0 0 0 0 0 0 0 0 0 0 0 0 0 0 0 0 0 0 0 0 0 0 0 0 0 0 0 0 0 0 0 0 0 0 0 0 0 0 0 0 0 0 0 0 0 0 0 0 0 0 0 0 0 0 0 0 0 0 0 0 0 0 0 0 0 0 0 0 0 0 0 0 0 0 0 0 0 0 0 0 0 0 0 0 0 0 0 0 0 0 0 0 0 0 0 0 0 0 0 0 0 0 0 0 0 0 0 0 0 0 0 0 0 0 0 0 0 0 0 0 0 0 0 0 0 0 0 0 0 0 0 0 0 0 0 0 0 0 0 0 0 0 0 0 0 0 0 0 0 0 0 0 0 0 0 0 0 0 0 0 0 0 0 0 0 0 0 0 0 0 0 0 0 0 0 0 0 0 0 0 0 0 0 0 0 0 0 0 0 0 0 0 0 0 0 0 0 0 0 0 0 0 0 0 0 0 0 0 0 0 0 0 0 0 0 0 0 0 0 0 0 0 0 0 0 0 0 0 0 0 0 0 0 0 0 0 0 0 0 0 0 0 0 0 0 0 0 0 0 0 0 0 0 0 0 0 0 0 0 0 0 0 0 0 0 0 0 0 0 0 0 0 0 0 0 0 0 0 0 0 0 0 0 0 0 0 0 0 0 0 0 0 0 0 0 0 0 0 0 0 0 0 0 0 0 0 0 0 0 0 0 0 0 0 0 0 0 0 0 0 0 0 0 0 0 0 0 0 0 0 0 0 0 0 0 0 0 0 0 0 0 0 0 0 0 0 0 0 0 0 0 0 0 0 0 0 0 0 0 0 0 0 0 0 0 0 0 0 0 0 0 0 0 0 0 0 0 0 0 0 0 0 0 0 0 0 0 0 0 0 0 0 0 0 0 0 0 0 0 0 0 0 0 0 0 0 0 0 0 0 0 0 0 0 0 0 0 0 0 0 0 0 0 0 0 0 0 0 0 0 0 0 0 0 0 0 0 0 0 0 0 0 0 0 0 0 0 0 0 0 0 0 0 0 0 0 0 0 0 0 0 0 0 0 0 0 0 0 0 0 0 0 0 0 0 0 0 0 0 0 0 0 0 0 0 0 0 0 0 0 0 0 0 0 0 0 0 0 0 0 0 0 0 0 0 0 0 0 0 0 0 0 0 0 0 0 0 0 0 0 0 0 0 0 0 0 0 0 0 0 0 0 0 0 0 0 0 0 0 0 0 0 0 0 0 0 0 0 0 0 0 0 0 0 0 0 0 0 0 0 0 0 0 0 0 0 0 0 0 0 0 0 0 0 0 0 0 0 0 0 0 0 0 0 0 0 0 0 0 0 0 0 0 0 0 0 0 0 0 0 0 0 0 0 0 0 0 0 0 
        </DataArray>
        <DataArray Name="p" NumberOfComponents="1" type="Float32" format="ascii">