<?xml version="1.0"?>
<VTKFile type="StructuredGrid" version="0.1" byte_order="LittleEndian">
  <StructuredGrid WholeExtent="0 32 0 32 0 1">
    <Piece Extent="0 32 0 32 0 1">
      <PointData>
      </PointData>
      <CellData>
        <DataArray Name="vx" NumberOfComponents="1" type="Float32" format="ascii">
0.0226937 0.0233759 0.0240227 0.0246093 0.0250646 0.0253348 0.0253165 0.024938 0.0241469 0.0229662 0.0214497 0.0197592 0.0181407 0.0167895 0.0158767 0.0154113 0.0153333 0.0155345 0.0158897 0.016307 0.016688 0.017011 0.0172301 0.0174741 0.0178339 0.0182561 0.0187889 0.019368 0.0199995 0.0206542 0.0213252 0.022009 0.0226206 0.0234023 0.024179 0.0249275 0.0255671 0.026041 0.0262047 0.0259307 0.0251267 0.0237805 0.0219249 0.0197759 0.0177121 0.0160379 0.0149975 0.0145793 0.0146372 0.0150314 0.0155535 0.0161444 0.0166273 0.0170216 0.0172802 0.0174745 0.0177874 0.0181516 0.018643 0.0191858 0.0198017 0.0204515 0.0211419 0.0218661 0.0224877 0.0233524 0.0242468 0.0251623 0.0260284 0.0268104 0.027305 0.0272658 0.0265296 0.0250005 0.022656 0.0197926 0.0170611 0.0149353 0.0137699 0.0135206 0.0138515 0.0145598 0.0153119 0.016121 0.0167004 0.0171426 0.0173628 0.0174112 0.0176619 0.0179727 0.018443 0.0189659 0.0195756 0.0202216 0.0209253 0.0216784 0.0222156 0.0231285 0.0241144 0.0252103 0.0263929 0.0277046 0.0288076 0.0292396 0.0287195 0.0269753 0.0239016 0.0199198 0.0161285 0.0133221 0.0120491 0.0121583 0.0129796 0.0141778 0.0152391 0.0163144 0.0169666 0.0174091 0.0175138 0.0172897 0.0174467 0.0177103 0.0181674 0.0186829 0.0192873 0.0199237 0.0206248 0.0213826 0.0217528 0.0226416 0.0236657 0.0249637 0.0266447 0.0288862 0.031071 0.0322162 0.0320106 0.0300622 0.0259839 0.0203035 0.0149906 0.0111835 0.00960882 0.0102624 0.0119299 0.0139555 0.0154923 0.0169231 0.0175864 0.017991 0.01782 0.0169946 0.0170256 0.0173145 0.01781 0.0183631 0.0189669 0.0195815 0.0202462 0.0209598 0.0210148 0.0218144 0.0228585 0.0244717 0.0269482 0.0306414 0.0341133 0.0359153 0.0360752 0.0339736 0.0290633 0.021644 0.0144716 0.00922484 0.00698701 0.00801762 0.0105873 0.0137463 0.0160043 0.0180261 0.0186831 0.0189381 0.0183657 0.0165382 0.0163783 0.0168359 0.0173896 0.0180055 0.0185849 0.019148 0.0197265 0.0203341 0.0200539 0.0206772 0.0216944 0.023665 0.0270844 0.0321992 0.036392 0.037182 0.0365918 0.0355355 0.0320363 0.024476 0.0170272 0.0110591 0.00645723 0.00629799 0.00930673 0.0136927 0.0169698 0.0197817 0.0203181 0.0207476 0.019786 0.0159801 0.015432 0.0163169 0.0169845 0.0177346 0.0182598 0.0187315 0.0191543 0.0195766 0.0188101 0.0191911 0.0201058 0.022248 0.025888 0.0305727 0.0314891 0.0292919 0.0282037 0.0276454 0.0275781 0.0249401 0.0221661 0.0185082 0.0132104 0.01006 0.010264 0.0143758 0.0183833 0.0223132 0.0223893 0.0219996 0.0217926 0.0161849 0.0146437 0.016424 0.0169591 0.0176925 0.0180067 0.0182822 0.0184559 0.018611 0.0174835 0.0174547 0.0178267 0.0191814 0.0209315 0.022033 0.0188194 0.0187798 0.0212582 0.0190727 0.0179152 0.0197257 0.0214711 0.0209077 0.0211511 0.0186739 0.0160108 0.0175075 0.0207914 0.0228323 0.0223036 0.0196989 0.0199495 0.0168798 0.0151565 0.0173036 0.0173906 0.0179619 0.0179483 0.017955 0.017819 0.0176506 0.0159715 0.0153715 0.0149058 0.0145729 0.0133613 0.0106495 0.0118884 0.0124001 0.00919456 0.00866789 0.0120398 0.0198116 0.0259277 0.0278907 0.0262504 0.0261893 0.0253293 0.0221016 0.0231185 0.0229106 0.024286 0.0208398 0.0181109 0.0198715 0.0199927 0.0199057 0.0191877 0.0187792 0.018156 0.0176903 0.0171426 0.0165703 0.0147686 0.0135503 0.0117401 0.00907337 0.00342762 -0.000462341 0.000167442 -0.00103491 -0.000950515 0.0038974 0.0117133 0.0218043 0.0310319 0.0381087 0.0398617 0.0380535 0.0349624 0.0320071 0.0301597 0.0321104 0.0329713 0.0243024 0.020994 0.0215917 0.0210309 0.0210853 0.0197031 0.0190092 0.0181262 0.0174105 0.0166132 0.0157513 0.0136258 0.0117099 0.00899385 0.00414757 -0.00108777 -0.00709608 -0.0107991 -0.00916853 -0.00378918 0.00393624 0.0127842 0.0226418 0.0325608 0.0420701 0.0491957 0.0493224 0.0436043 0.0374741 0.0318052 0.023862 0.0202783 0.020154 0.0214488 0.0259713 0.0256776 0.022901 0.0213088 0.0195733 0.0183424 0.0172331 0.0161614 0.0149708 0.0134229 0.0112867 0.00841368 0.00265771 -0.0024838 -0.010542 -0.0153785 -0.010693 -0.00315956 0.00555777 0.0142875 0.0233495 0.0330317 0.0431281 0.0531022 0.0557661 0.0526222 0.0463246 0.0374549 0.0283423 0.0230594 0.0245823 0.024179 0.0265962 0.0265859 0.0225339 0.0209209 0.0192623 0.0181374 0.0170532 0.0160035 0.0147817 0.0133953 0.0112649 0.0081309 0.00250799 -0.00498731 -0.0123677 -0.015083 -0.01118 -0.00287349 0.00616305 0.015249 0.0243527 0.0340445 0.0441697 0.0542607 0.0590525 0.057553 0.0503716 0.0407236 0.0333806 0.0290178 0.0287753 0.0268947 0.0257383 0.0244135 0.0217921 0.0204392 0.0190565 0.0180414 0.0170254 0.0160133 0.0148085 0.014355 0.0128465 0.0106705 0.00707712 0.00145934 -0.00407493 -0.00789029 -0.0078456 -0.00115639 0.00743922 0.0166671 0.0258281 0.0351967 0.0442038 0.0518807 0.0566419 0.0543977 0.0463697 0.0387935 0.0330752 0.0298322 0.0288253 0.0266054 0.0245972 0.0227124 0.0208549 0.0197829 0.0187768 0.0180035 0.0172316 0.0164339 0.0154858 0.0157042 0.0148776 0.0140129 0.013038 0.0106367 0.007144 0.0044377 0.00232718 0.00457072 0.0109788 0.0190714 0.0271266 0.0345127 0.0386491 0.0412323 0.0439275 0.0419842 0.0368379 0.0333671 0.0306642 0.0291587 0.0278458 0.025132 0.0230209 0.0213525 0.0201682 0.0193735 0.0187206 0.0181921 0.0176786 0.017125 0.0164675 0.0174218 0.0172187 0.0175503 0.0188326 0.020927 0.0203048 0.0217072 0.0212263 0.0188311 0.0211873 0.0238324 0.0251528 0.0257177 0.0236218 0.021227 0.0222294 0.0237319 0.025049 0.0268456 0.0275065 0.0279194 0.0266147 0.0234618 0.0212913 0.0199509 0.0195465 0.0191815 0.0189534 0.0187091 0.018463 0.0181613 0.0178037 0.0191064 0.0192245 0.0199869 0.0221073 0.0258269 0.0289678 0.0281011 0.0240271 0.0241248 0.0255812 0.0250784 0.0234338 0.0207136 0.0218616 0.0203021 0.0146936 0.0156506 0.019698 0.0235348 0.0257617 0.0282188 0.026781 0.0217599 0.0192531 0.0184721 0.0190586 0.0192688 0.019426 0.0194449 0.0194178 0.0193319 0.0192112 0.0207939 0.0210587 0.0218708 0.0239427 0.0277761 0.032798 0.0348645 0.0334517 0.0291884 0.023161 0.019865 0.0187492 0.0175717 0.0150965 0.0111708 0.00878637 0.0120386 0.0171132 0.0222218 0.026317 0.0285874 0.0255798 0.0186688 0.0148595 0.0150083 0.0179839 0.0196095 0.0204007 0.0206839 0.020759 0.0207633 0.0207507 0.0222547 0.0225886 0.0232985 0.0248791 0.0277369 0.0320597 0.035482 0.0363944 0.0322721 0.0248797 0.0193842 0.0155654 0.0117938 0.00787089 0.00584978 0.00715433 0.0114927 0.0159362 0.0216719 0.0250785 0.0209487 0.0181721 0.0165208 0.0133778 0.0137239 0.0172461 0.0200112 0.0212862 0.0218318 0.0219776 0.0220499 0.0221072 0.023524 0.0238155 0.0243683 0.0254372 0.0271849 0.0298829 0.0322162 0.0330881 0.030788 0.0258174 0.0202033 0.0147575 0.0104332 0.00766846 0.00725529 0.00884728 0.0124327 0.0156669 0.0228573 0.0257875 0.0190282 0.0183253 0.0217803 0.0212239 0.0198742 0.0209578 0.022888 0.0235405 0.0237894 0.0236174 0.0234987 0.0234267 0.0243387 0.0246052 0.0250638 0.0258089 0.026816 0.0282465 0.0293725 0.0295923 0.0277738 0.0241524 0.0200519 0.0159824 0.0125776 0.0102426 0.00960449 0.0102541 0.0116074 0.0125532 0.011013 0.00869699 0.00991335 0.0169739 0.0250042 0.031983 0.0326647 0.0281639 0.0264699 0.0255034 0.0251318 0.0246597 0.024407 0.0242659 0.0248603 0.0250372 0.0253766 0.0258813 0.026442 0.0270955 0.0274283 0.0271563 0.0257119 0.0231503 0.0200405 0.016799 0.0140575 0.0120902 0.01115 0.0110064 0.0108605 0.0106136 0.00485265 -3.2551e-05 0.00628832 0.017498 0.0264223 0.0367313 0.0416666 0.0359036 0.0306095 0.0280533 0.0266362 0.0257127 0.0251818 0.0248912 0.0248969 0.0250611 0.025335 0.0256932 0.0260071 0.0262571 0.026169 0.0256174 0.0243144 0.0223097 0.0199638 0.0175099 0.0153118 0.0135739 0.0124707 0.0119319 0.0116234 0.0113003 0.00943974 0.00467387 0.00498747 0.0142384 0.0256896 0.0336317 0.0344811 0.0310843 0.0286723 0.0270246 0.0261041 0.0254499 0.0250832 0.0248917 0.024732 0.0248865 0.0250997 0.0253422 0.0255002 0.0255336 0.0252602 0.024616 0.0234628 0.0218457 0.0199587 0.0179782 0.0161611 0.0146759 0.0136068 0.0131698 0.0130248 0.0142456 0.0153156 0.0199079 0.0194353 0.0180819 0.0252707 0.0257183 0.0237012 0.0249171 0.0256089 0.0255508 0.0251939 0.0249355 0.0247522 0.0246852 0.0243494 0.0245458 0.0247463 0.0249278 0.0250003 0.0249265 0.0245812 0.0239321 0.0229106 0.0215638 0.0200251 0.0184163 0.0169042 0.0156146 0.0146203 0.0140996 0.0139016 0.0148071 0.0161249 0.0218011 0.0248164 0.0217543 0.0196086 0.0178241 0.0183908 0.0217338 0.0232445 0.0237328 0.0238843 0.0239919 0.0240783 0.0241963 0.0239553 0.0241973 0.0244019 0.0245527 0.0245812 0.0244572 0.0240958 0.02348 0.0225764 0.0214294 0.0201302 0.018778 0.0174971 0.016385 0.0154979 0.0149682 0.0147033 0.0150781 0.0157845 0.0182913 0.0222863 0.0217028 0.0166185 0.0150694 0.0178886 0.0203685 0.0216726 0.0223562 0.0227957 0.0231605 0.0234423 0.0237093 0.0235576 0.0238624 0.0241002 0.024259 0.0242857 0.0241563 0.0238106 0.0232399 0.0224286 0.0214187 0.0202827 0.0191048 0.0179876 0.0170098 0.0162325 0.0157271 0.0154689 0.0155888 0.0158858 0.0168364 0.0185082 0.0184249 0.0167355 0.0164559 0.0180026 0.0194328 0.0204424 0.0212129 0.0218346 0.0223737 0.0228161 0.0232143 0.0232456 0.0236104 0.0238938 0.0240846 0.0241376 0.0240306 0.023716 0.0231868 0.0224349 0.0215006 0.0204459 0.0193516 0.0183149 0.0174081 0.016699 0.0162213 0.0159868 0.0159949 0.0162064 0.0165832 0.0174051 0.0175588 0.016662 0.0167441 0.0178086 0.0187658 0.019685 0.0204747 0.0211727 0.0218001 0.0223387 0.0228259 0.023006 0.0234378 0.0237857 0.0240366 0.0241462 0.0240897 0.0238203 0.0233277 0.0226036 0.0216878 0.0206383 0.0195417 0.0185021 0.0175986 0.0169101 0.0164512 0.0162388 0.0162205 0.0163706 0.0165857 0.0169485 0.0170913 0.0169098 0.0171489 0.0177975 0.0185055 0.0192709 0.0200091 0.0207086 0.0213693 0.0219653 0.0225174 0.0228522 0.023356 0.0237839 0.0241189 0.0243115 0.0243301 0.0241186 0.0236568 0.0229292 0.0219749 0.0208518 0.0196608 0.0185285 0.0175529 0.0168312 0.0163722 0.0161862 0.0161939 0.016372 0.0165904 0.0168823 0.017074 0.0170545 0.0172964 0.0177964 0.0183704 0.0190416 0.0197239 0.0204054 0.0210726 0.0217015 0.0223013 0.0227553 0.0233436 0.0238727 0.024321 0.0246291 0.0247542 0.0246216 0.0241922 0.023437 0.0223924 0.0211157 0.0197331 0.0184124 0.017289 0.0164884 0.0160191 0.0158686 0.015944 0.01618 0.0164667 0.016767 0.0170175 0.0171704 0.0174337 0.0178411 0.0183255 0.0189104 0.0195333 0.0201855 0.0208461 0.0214968 0.0221391 
        </DataArray>
        <DataArray Name="vy" NumberOfComponents="1" type="Float32" format="ascii">
0.00968773 0.00969693 0.0098457 0.0101741 0.0107183 0.0114819 0.0124581 0.0135522 0.0146509 0.015602 0.016261 0.0164697 0.0161896 0.0154871 0.0145188 0.0134848 0.0125386 0.0117436 0.0111926 0.0107823 0.0106365 0.0105012 0.0105778 0.0106122 0.0106651 0.0106317 0.0105732 0.0104411 0.0102887 0.0101043 0.00992787 0.00977694 0.00896945 0.00898415 0.00916725 0.00958098 0.0102788 0.011284 0.0126092 0.0141335 0.0156831 0.0170624 0.0180204 0.018309 0.0178198 0.0167194 0.0152287 0.0137261 0.0124106 0.0113859 0.0107369 0.0103126 0.0102506 0.0101793 0.010336 0.0103194 0.0103003 0.0101772 0.0100424 0.00985179 0.00965684 0.00944268 0.00924149 0.00907172 0.00814922 0.00813651 0.00831887 0.00878384 0.00960573 0.0108415 0.012571 0.0146287 0.016798 0.0188144 0.0202504 0.0206983 0.0199133 0.0182158 0.0159722 0.0138541 0.0120932 0.0108275 0.0100958 0.0096933 0.00978228 0.00982579 0.0101327 0.0100948 0.00998849 0.00977195 0.00954203 0.00928091 0.00902543 0.008763 0.0085128 0.00829673 0.00729784 0.00722897 0.00736203 0.00780298 0.00863974 0.0100132 0.0121656 0.0149287 0.0179377 0.0209381 0.0231772 0.023918 0.0226306 0.0200328 0.0166446 0.0136573 0.0113754 0.00991798 0.00919021 0.0088959 0.00925488 0.00947979 0.0100799 0.0100218 0.0097385 0.00940465 0.00904885 0.00871924 0.00840149 0.00809225 0.00778596 0.00751146 0.00639823 0.00623222 0.00623415 0.00649581 0.00711763 0.00840686 0.0110484 0.0146898 0.0190567 0.023693 0.0272726 0.0285425 0.026476 0.0223304 0.017096 0.0129284 0.0100758 0.00855933 0.00799089 0.007935 0.0087553 0.00925462 0.0102657 0.010181 0.00953004 0.00906074 0.00855115 0.00816357 0.00778176 0.0074247 0.00705149 0.00670281 0.00562035 0.00531992 0.00505081 0.00482072 0.00474674 0.00559057 0.00889452 0.0140931 0.0200875 0.0269354 0.0327143 0.0349316 0.0315833 0.0254947 0.0176617 0.011384 0.00772768 0.00634587 0.00625976 0.00673242 0.00821771 0.00912085 0.0110467 0.0108545 0.00938623 0.00870288 0.00799165 0.0075914 0.00718208 0.00681918 0.00640893 0.00600945 0.00490933 0.00437609 0.00358118 0.00237706 0.000987877 0.00114778 0.00583653 0.0124456 0.0209549 0.0309321 0.0396204 0.0434096 0.0388439 0.0298117 0.0180992 0.00925671 0.00432969 0.00307157 0.00377189 0.00517115 0.00809606 0.00958679 0.0126829 0.0123648 0.00900966 0.00809047 0.00726591 0.00696862 0.00660455 0.00627922 0.00585341 0.00540784 0.00452741 0.00367086 0.00208083 -0.000634342 -0.00372954 -0.00382353 0.00413085 0.0144317 0.0220417 0.0312165 0.042644 0.04981 0.0443936 0.0364869 0.0230111 0.00856047 0.000532751 -0.00132853 0.000277928 0.00328832 0.00721096 0.00920385 0.0155609 0.0153076 0.00897928 0.00748647 0.00657578 0.00644325 0.0061958 0.00595872 0.00556992 0.00512059 0.00431994 0.00306829 0.000567646 -0.00343133 -0.00717491 -0.0046255 0.00764549 0.0141041 0.0218847 0.0323869 0.0434438 0.0502025 0.0454399 0.0379154 0.02598 0.0120151 5.81714e-05 -0.0054103 -0.004164 0.000791643 0.00938512 0.010282 0.018574 0.0204137 0.00798372 0.00580896 0.00564781 0.00587488 0.00590433 0.00580935 0.00549043 0.00504128 0.00473246 0.00328052 0.000354436 -0.00403179 -0.00658798 -0.00262586 0.00766546 0.0126892 0.0234099 0.034034 0.0412642 0.0451191 0.0437123 0.0374425 0.0261733 0.0126263 0.00242575 -0.00606012 -0.00462648 0.00218193 0.00951552 0.01101 0.0175608 0.0198117 0.00843736 0.00606493 0.00595423 0.00616213 0.00624959 0.00616403 0.00589336 0.00547547 0.00551214 0.00416379 0.00146528 -0.0016954 -0.00295067 -0.00240665 0.006129 0.0162933 0.0243923 0.0293283 0.0330203 0.0360484 0.0372863 0.0366354 0.0281597 0.0133029 0.00461088 -0.00470497 -0.00597228 -0.0011971 0.0120678 0.0182332 0.0204729 0.0188482 0.00819505 0.00613093 0.00654913 0.00670836 0.00686915 0.00677348 0.00656237 0.00620005 0.00694149 0.00627337 0.00477678 0.00388242 0.00271966 0.000733442 0.00765356 0.0145628 0.0188469 0.0213906 0.0234332 0.0256801 0.02754 0.0291682 0.0255154 0.0170873 0.00941651 -0.000414824 -0.00263136 0.000267903 0.0162264 0.0218391 0.019306 0.0186902 0.00904076 0.0073716 0.00798761 0.00790771 0.00790851 0.00774758 0.00757857 0.00735209 0.00873812 0.00885956 0.00902012 0.00898862 0.00822587 0.00738499 0.00785467 0.00919275 0.0111015 0.0127455 0.0143991 0.0161854 0.017836 0.019936 0.0205982 0.0193341 0.0148499 0.00701478 0.00654241 0.00957195 0.0162251 0.0185612 0.0151067 0.0152336 0.0114919 0.0107333 0.0101406 0.00956156 0.00917833 0.00891766 0.00878697 0.00872379 0.0104551 0.0113943 0.0133767 0.0148189 0.0159044 0.0134202 0.00771926 0.00244184 0.00247703 0.00391653 0.00560816 0.00691382 0.00778144 0.00924022 0.0129382 0.0185963 0.0183996 0.0158035 0.0147082 0.0155053 0.0191444 0.0200133 0.0171553 0.0158204 0.0131626 0.0125429 0.0114846 0.0107086 0.0101871 0.00992222 0.00987773 0.00999219 0.0121956 0.0140087 0.0175884 0.021494 0.0230441 0.0173009 0.00729374 -0.00283353 -0.00595104 -0.00516346 -0.00367209 -0.00245565 -0.00188298 -5.41507e-05 0.00543178 0.0161792 0.0225817 0.0242449 0.0230456 0.0212879 0.0211334 0.0208847 0.0185825 0.0177323 0.0155862 0.0143818 0.0128923 0.0118678 0.0111966 0.0109186 0.0109701 0.011307 0.0131633 0.0152545 0.0193325 0.0247528 0.0272964 0.0222782 0.0114983 -0.00467979 -0.0131955 -0.0142435 -0.0131301 -0.011804 -0.0109353 -0.00769329 0.000260021 0.0162933 0.0287244 0.0314464 0.0284037 0.0248351 0.0233029 0.02303 0.0211968 0.0197029 0.0171432 0.0153919 0.0136418 0.0124727 0.0117553 0.0115039 0.0116466 0.0121207 0.0137351 0.0156375 0.0192703 0.0246793 0.0285775 0.0238208 0.0110486 -0.00298137 -0.0134187 -0.0190141 -0.0195945 -0.0174247 -0.0128374 -0.00552885 -0.00076554 0.014971 0.029663 0.0325236 0.0289493 0.0254776 0.0238858 0.0249059 0.0234676 0.0214617 0.0185157 0.016299 0.0143715 0.013033 0.0122509 0.0119834 0.0121734 0.01271 0.0137757 0.0152111 0.0177734 0.0217407 0.0255567 0.0231125 0.0114696 -0.00116125 -0.014884 -0.0202574 -0.0183114 -0.0140914 -0.010422 -0.00442555 0.00197971 0.0154062 0.026728 0.028559 0.0260738 0.0241788 0.0241545 0.0274871 0.026434 0.0231986 0.0189604 0.016147 0.0142363 0.0129152 0.0122321 0.0120343 0.0123036 0.0128703 0.0137034 0.0147072 0.0162709 0.0186305 0.0212431 0.0208501 0.0142024 0.00126942 -0.013722 -0.018398 -0.0168894 -0.0129313 -0.00998056 -0.0044044 0.00672862 0.0180275 0.0239996 0.0242602 0.0221338 0.0209384 0.0228486 0.031452 0.0309375 0.0247934 0.018777 0.0154826 0.014037 0.0128777 0.0122961 0.0121161 0.0123977 0.0129348 0.0134653 0.0141395 0.0149301 0.0159151 0.0168718 0.0162841 0.0119173 0.00423708 -0.00558385 -0.0116341 -0.0137704 -0.0116477 -0.00673692 0.000738813 0.00843559 0.0151573 0.0186723 0.0191333 0.0168189 0.0191494 0.0242773 0.0367965 0.036688 0.0263117 0.016407 0.0115949 0.0118334 0.0118013 0.0118388 0.0119095 0.0122874 0.0128156 0.0132397 0.0136581 0.0139739 0.0141391 0.0140163 0.0129677 0.00979946 0.00460743 -0.00184162 -0.00570239 -0.00701868 -0.00571522 -0.00270001 0.00212155 0.00759368 0.0121975 0.0145576 0.0137816 0.0100022 0.02208 0.0300378 0.0375059 0.0371504 0.0281976 0.0146943 0.00852347 0.00989232 0.0110357 0.0116469 0.0119279 0.0123074 0.0127482 0.0130573 0.0132703 0.0133071 0.0130814 0.0124649 0.0112347 0.00884215 0.00552854 0.00153614 -0.00126185 -0.00258824 -0.00186497 0.000364735 0.00375736 0.00734205 0.0103575 0.0122408 0.0106894 0.00794958 0.0244343 0.03004 0.0323337 0.0318323 0.0277503 0.0167285 0.00938127 0.00935144 0.0109028 0.0117246 0.0121412 0.0124432 0.0127505 0.0129319 0.0129474 0.0127952 0.0123913 0.011617 0.010411 0.00852646 0.00624551 0.00368501 0.00197507 0.00120424 0.00163182 0.00297532 0.00512556 0.00759801 0.0099823 0.0120696 0.0129666 0.0136814 0.0216811 0.0228701 0.0237089 0.0229686 0.02122 0.0177162 0.0147201 0.0125677 0.0124523 0.0125918 0.0127116 0.0127603 0.0128466 0.0128886 0.0127293 0.0124524 0.0119929 0.0112498 0.0102187 0.00878991 0.00719996 0.0055213 0.00436801 0.00381898 0.0041244 0.00509418 0.0066208 0.0084795 0.0105266 0.0129539 0.0158212 0.0202933 0.0227711 0.0124383 0.0121446 0.0126511 0.012568 0.0175858 0.0204325 0.0168292 0.0147969 0.0139176 0.0135218 0.0132111 0.0130312 0.012789 0.0125233 0.012183 0.0117281 0.0110792 0.0102565 0.00920049 0.00810656 0.00701141 0.00630348 0.00599831 0.00623797 0.00690038 0.0079529 0.00926414 0.0108036 0.0127189 0.0152702 0.0201536 0.0251844 0.0124074 0.00339903 0.00460808 0.0116347 0.0202572 0.0206405 0.0169409 0.0151604 0.0142914 0.0138017 0.013373 0.0130623 0.0126724 0.0123471 0.0119904 0.0115797 0.0110566 0.0104442 0.00970767 0.0089827 0.00829085 0.00786392 0.00770616 0.00792232 0.00841393 0.00916167 0.0100406 0.0110791 0.0121055 0.0135373 0.0152923 0.0194885 0.0150394 0.00481749 0.00479391 0.013454 0.0193697 0.0181313 0.016201 0.0151236 0.0144588 0.0139166 0.0134254 0.0130265 0.0124534 0.0121338 0.0118116 0.0114777 0.0110924 0.0106773 0.0102076 0.00977544 0.00938492 0.00917809 0.0091429 0.00934157 0.00970239 0.0102189 0.0107934 0.011456 0.0120323 0.0127413 0.0131783 0.0149729 0.0129307 0.00917623 0.00929796 0.0131925 0.0159252 0.0156125 0.015 0.0145369 0.0140853 0.0136369 0.0131951 0.0128073 0.0121771 0.0118937 0.0116333 0.0113948 0.0111532 0.0109235 0.0106869 0.0104959 0.0103437 0.0103055 0.0103637 0.0105512 0.0108148 0.0111507 0.0114845 0.0118501 0.012101 0.0124068 0.0123902 0.012913 0.0122415 0.010196 0.0102601 0.0127746 0.0141295 0.0143058 0.0142019 0.0139516 0.0136249 0.0132449 0.0128588 0.0125015 0.0118112 0.0115941 0.0114197 0.0112926 0.0112004 0.0111512 0.0111292 0.0111546 0.0112092 0.0113186 0.011458 0.0116304 0.0118016 0.0119671 0.0120895 0.012193 0.0122032 0.0122133 0.0120207 0.0120349 0.0116065 0.0109385 0.0111098 0.0121549 0.0129045 0.0131838 0.0132576 0.0131551 0.0129488 0.012668 0.0123653 0.0120732 0.0113899 0.011243 0.0111596 0.0111489 0.0112093 0.0113422 0.0115333 0.0117733 0.0120318 0.0122903 0.012514 0.0126771 0.0127593 0.0127586 0.0126771 0.0125457 0.0123538 0.0121513 0.0118806 0.0116577 0.0113848 0.0109136 0.010987 0.0116736 0.0121256 0.0123976 0.0124951 0.0124393 0.0122909 0.0120684 0.011826 0.0115903 0.0108927 0.010815 0.0108229 0.0109314 0.0111501 0.0114755 0.0118941 0.0123689 0.0128511 0.0132809 0.0136051 0.0137646 0.0137476 0.0135589 0.0132456 0.0128608 0.0124536 0.0120574 0.0116978 0.0113879 0.0111669 0.0109308 0.0110003 0.0112938 0.011551 0.0117089 0.011773 0.0117186 0.011598 0.0114154 0.0112204 0.0110353 0.010335 0.0103112 0.0103983 0.010621 0.0110006 0.0115342 0.0122091 0.012961 0.0137142 0.0143649 0.0148259 0.0149975 0.0148635 0.014452 0.0138558 0.013183 0.0125349 0.0119498 0.0115015 0.0111255 0.0109353 0.0107344 0.0107812 0.010929 0.0110704 0.0111381 0.0111489 0.0110665 0.0109415 0.0107694 0.0105956 0.0104391 
        </DataArray>
        <DataArray Name="vz" NumberOfComponents="1" type="Float32" format="ascii">
0 0 0 0 0 0 0 0 0 0 0 0 0 0 0 0 0 0 0 0 0 0 0 0 0 0 0 0 0 0 0 0 0 0 0 0 0 0 0 0 0 0 0 0 0 0 0 0 0 0 0 0 0 0 0 0 0 0 0 0 0 0 0 0 0 0 0 0 0 0 0 0 0 0 0 0 0 0 0 0 0 0 0 0 0 0 0 0 0 0 0 0 0 0 0 0 0 0 0 0 0 0 0 0 0 0 0 0 0 0 0 0 0 0 0 0 0 0 0 0 0 0 0 0 0 0 0 0 0 0 0 0 0 0 0 0 0 0 0 0 0 0 0 0 0 0 0 0 0 0 0 0 0 0 0 0 0 0 0 0 0 0 0 0 0 0 0 0 0 0 0 0 0 0 0 0 0 0 0 0 0 0 0 0 0 0 0 0 0 0 0 0 0 0 0 0 0 0 0 0 0 0 0 0 0 0 0 0 0 0 0 0 0 0 0 0 0 0 0 0 0 0 0 0 0 0 0 0 0 0 0 0 0 0 0 0 0 0 0 0 0 0 0 0 0 0 0 0 0 0 0 0 0 0 0 0 0 0 0 0 0 0 0 0 0 0 0 0 0 0 0 0 0 0 0 0 0 0 0 0 0 0 0 0 0 0 0 0 0 0 0 0 0 0 0 0 0 0 0 0 0 0 0 0 0 0 0 0 0 0 0 0 0 0 0 0 0 0 0 0 0 0 0 0 0 0 0 0 0 0 0 0 0 0 0 0 0 0 0 0 0 0 0 0 0 0 0 0 0 0 0 0 0 0 0 0 0 0 0 0 0 0 0 0 0 0 0 0 0 0 0 0 0 0 0 0 0 0 0 0 0 0 0 0 0 0 0 0 0 0 0 0 0 0 0 0 0 0 0 0 0 0 0 0 0 0 0 0 0 0 0 0 0 0 0 0 0 0 0 0 0 0 0 0 0 0 0 0 0 0 0 0 0 0 0 0 0 0 0 0 0 0 0 0 0 0 0 0 0 0 0 0 0 0 0 0 0 0 0 0 0 0 0 0 0 0 0 0 0 0 0 0 0 0 0 0 0 0 0 0 0 0 0 0 0 0 0 0 0 0 0 0 0 0 0 0 0 0 0 0 0 0 0 0 0 0 0 0 0 0 0 0 0 0 0 0 0 0 0 0 0 0 0 0 0 0 0 0 0 0 0 0 0 0 0 0 0 0 0 0 0 0 0 0 0 0 0 0 0 0 0 0 0 0 0 0 0 0 0 0 0 0 0 0 0 0 0 0 0 0 0 0 0 0 0 0 0 0 0 0 0 0 0 0 0 0 0 0 0 0 0 0 0 0 0 0 0 0 0 0 0 0 0 0 0 0 0 0 0 0 0 0 0 0 0 0 0 0 0 0 0 0 0 0 0 0 0 0 0 0 0 0 0 0 0 0 0 0 0 0 0 0 0 0 0 0 0 0 0 0 0 0 0 0 0 0 0 0 0 0 0 0 0 0 0 0 0 0 0 0 0 0 0 0 0 0 0 0 0 0 0 0 0 0 0 0 0 0 0 0 0 0 0 0 0 0 0 0 0 0 0 0 0 0 0 0 0 0 0 0 0 0 0 0 0 0 0 0 0 0 0 0 0 0 0 0 0 0 0 0 0 0 0 0 0 0 0 0 0 0 0 0 0 0 0 0 0 0 0 0 0 0 0 0 0 0 0 0 0 0 0 0 0 0 0 0 0 0 0 0 0 0 0 0 0 0 0 0 0 0 0 0 0 0 0 0 0 0 0 0 0 0 0 0 0 0 0 0 0 0 0 0 0 0 0 0 0 0 0 0 0 0 0 0 0 0 0 0 0 0 0 0 0 0 0 0 0 0 0 0 0 0 0 0 0 0 0 0 0 0 0 0 0 0 0 0 0 0 0 0 0 0 0 0 0 0 0 0 0 0 0 0 0 0 0 0 0 0 0 0 0 0 0 0 0 0 0 0 0 0 0 0 0 0 0 0 0 0 0 0 0 0 0 0 0 0 0 0 0 0 0 0 0 0 0 0 0 0 0 0 0 0 0 0 0 0 0 0 0 0 0 0 0 0 0 0 0 0 0 0 0 0 0 0 0 0 0 0 0 0 0 0 0 0 0 0 0 0 0 0 0 0 0 0 0 0 0 0 0 0 0 0 0 0 0 0 0 0 0 0 0 0 0 0 0 0 0 0 0 0 0 0 0 0 0 0 0 0 0 0 0 0 0 0 0 0 0 0 0 0 0 0 0 0 0 0 0 0 0 0 0 0 0 0 0 0 0 0 0 0 0 0 0 0 
        </DataArray>
        <DataArray Name="p" NumberOfComponents="1" type="Float32" format="ascii">