<?xml version="1.0"?>
<VTKFile type="StructuredGrid" version="0.1" byte_order="LittleEndian">
  <StructuredGrid WholeExtent="0 32 0 32 0 1">
    <Piece Extent="0 32 0 32 0 1">
      <PointData>
      </PointData>
      <CellData>
        <DataArray Name="vx" NumberOfComponents="1" type="Float32" format="ascii">
0.0222856 0.022859 0.0234005 0.0238898 0.0242661 0.0244858 0.0244662 0.0241432 0.0234922 0.0225141 0.0212779 0.0198831 0.0185258 0.0173745 0.016554 0.0161172 0.0159975 0.0161424 0.0164158 0.0167752 0.017112 0.0174051 0.0176521 0.017884 0.0181975 0.0185576 0.0190011 0.0194858 0.0200159 0.020566 0.0211325 0.0217085 0.0222056 0.0228605 0.0235063 0.0241261 0.0246494 0.0250348 0.0251648 0.0249307 0.0242862 0.0231839 0.0217041 0.0199614 0.0182506 0.0168346 0.0158869 0.0154722 0.0154471 0.0157391 0.0161451 0.0166439 0.0170637 0.0174136 0.0176891 0.0178721 0.018148 0.0184594 0.0188642 0.0193207 0.0198337 0.0203805 0.0209616 0.0215713 0.0220713 0.0227907 0.0235253 0.0242759 0.0249771 0.0256121 0.0260116 0.0259642 0.0253872 0.0241554 0.0223502 0.0200885 0.0178586 0.0160775 0.014974 0.0146565 0.0148264 0.0153587 0.0159467 0.0166185 0.0171181 0.0175069 0.0177697 0.0178297 0.018048 0.0183077 0.0186825 0.0191244 0.0196264 0.020172 0.0207618 0.021395 0.0218125 0.0225632 0.0233565 0.0242443 0.0251901 0.0262613 0.0271519 0.0274958 0.0271368 0.0257433 0.0234446 0.0203688 0.017314 0.0149786 0.0137073 0.0136266 0.0141523 0.0150675 0.0159038 0.0167873 0.0173385 0.0177083 0.0179071 0.0177363 0.0178693 0.0180913 0.018443 0.0188834 0.0193708 0.0199086 0.0204905 0.0211247 0.0213857 0.0221067 0.022913 0.0239641 0.0253162 0.0271553 0.0288967 0.0297552 0.0295849 0.0280173 0.0251999 0.021061 0.0169162 0.0137927 0.0120399 0.0121989 0.0133049 0.0148454 0.0160831 0.01725 0.0178109 0.0181544 0.0182189 0.0175913 0.0175836 0.0177786 0.0181272 0.0185981 0.0190731 0.019598 0.0201457 0.0207416 0.0207314 0.0213682 0.0221679 0.0234759 0.0254489 0.0284356 0.0310445 0.0323301 0.0324854 0.0308041 0.0276873 0.0226073 0.0172555 0.0131093 0.0105851 0.0107115 0.0122845 0.0146446 0.0165078 0.0181787 0.0187011 0.0188589 0.0187215 0.0173102 0.0170803 0.0173844 0.0177713 0.0183071 0.0187472 0.0192287 0.0196929 0.0201949 0.0198809 0.0203732 0.0211426 0.0227677 0.0254846 0.0294849 0.032302 0.0323894 0.0312056 0.0298126 0.0290854 0.0257371 0.0212974 0.0168762 0.0117037 0.0100801 0.011418 0.0143965 0.0171173 0.0193784 0.0197686 0.0200877 0.0199906 0.0174092 0.0166991 0.0170329 0.0174387 0.0180434 0.0184218 0.0188347 0.0191698 0.0195212 0.0188476 0.0191496 0.019829 0.0215614 0.0242354 0.0273974 0.0264923 0.0238389 0.0228582 0.0220393 0.024497 0.02615 0.0264526 0.0250871 0.0197439 0.0148849 0.0128692 0.0149454 0.018221 0.0213212 0.0211052 0.0204836 0.0212639 0.0181325 0.0166236 0.017097 0.0174422 0.018023 0.0182298 0.018471 0.0185908 0.0187187 0.0177043 0.0176814 0.0179137 0.0189739 0.0199979 0.0198844 0.0164014 0.0165326 0.021358 0.0227093 0.0211508 0.0202518 0.020278 0.0221257 0.0242715 0.0222994 0.0184257 0.017338 0.0198583 0.0210052 0.0204215 0.0191074 0.0198764 0.019478 0.0184209 0.0180866 0.0179611 0.0182164 0.0181166 0.0181264 0.0180004 0.0178709 0.0165505 0.016109 0.0157523 0.0154176 0.0142303 0.011437 0.0145364 0.0179918 0.0162567 0.0155348 0.0153118 0.0179714 0.0204181 0.0202343 0.0195511 0.0233416 0.0237104 0.0203686 0.0219876 0.0220467 0.0236891 0.0208406 0.0167709 0.0169028 0.0178884 0.018909 0.0187325 0.0185968 0.0182163 0.0178798 0.01746 0.0170204 0.015514 0.0145495 0.0131024 0.0110023 0.00694794 0.00533834 0.0074958 0.00669408 0.0056177 0.00827139 0.0130528 0.0198088 0.0262384 0.0298422 0.0308231 0.0296353 0.0274204 0.0275625 0.0280104 0.0307729 0.0334034 0.0260502 0.0193702 0.0212213 0.0229057 0.0214811 0.0199777 0.019061 0.0182412 0.0176225 0.0169797 0.0162966 0.0146882 0.0132133 0.0111925 0.00746226 0.00427542 0.00037918 -0.00303394 -0.00242988 0.00119998 0.00697351 0.0135262 0.021021 0.0288635 0.0360173 0.0420681 0.0421379 0.0393333 0.0359158 0.0301993 0.024016 0.0202304 0.0175571 0.0152488 0.0159714 0.0178784 0.0195148 0.0194071 0.0187617 0.0181138 0.0173625 0.0165951 0.0156943 0.0144241 0.0126612 0.0100155 0.00516823 -0.000903453 -0.00685562 -0.00885813 -0.00542842 0.00081152 0.00776418 0.0147324 0.0219938 0.0299633 0.0382543 0.0473358 0.0505582 0.0518009 0.047397 0.0365461 0.0276133 0.0217266 0.0230512 0.0248307 0.0256819 0.0239958 0.0216888 0.0203854 0.0190235 0.0181566 0.0172853 0.0164796 0.0155165 0.0144608 0.012747 0.0100018 0.00537667 -0.0017952 -0.007164 -0.00828335 -0.00531671 0.00151466 0.0084219 0.0156701 0.0229427 0.0307726 0.0388758 0.0478156 0.0523538 0.0527903 0.0478882 0.038781 0.03194 0.027434 0.027579 0.0279544 0.0267621 0.0239082 0.0214201 0.020098 0.0189078 0.0181216 0.0173017 0.0165231 0.0155782 0.0154568 0.0143745 0.0129481 0.0103559 0.00722219 0.00445885 0.000344606 -0.000355416 0.00445483 0.0101067 0.0171661 0.0243141 0.0314328 0.0380443 0.0444766 0.0478138 0.0444724 0.0396439 0.035623 0.03097 0.0281744 0.0278241 0.027012 0.0252675 0.0227836 0.0209066 0.0198059 0.0188399 0.0181952 0.0175544 0.0169539 0.0162449 0.0165532 0.0160335 0.0156915 0.0153798 0.0147093 0.0143285 0.0125942 0.0121357 0.0130033 0.0143061 0.0195538 0.0253416 0.0298242 0.0310624 0.0331776 0.0357861 0.0353825 0.0336295 0.0312848 0.0291672 0.0276836 0.0268706 0.0252213 0.0235223 0.0216884 0.0204019 0.0195849 0.0189031 0.0184337 0.017985 0.0175595 0.0170657 0.0179836 0.0178914 0.0184137 0.0194307 0.0214002 0.0196661 0.0215122 0.0272824 0.0261331 0.0233386 0.0237097 0.024198 0.0219861 0.0183045 0.0179506 0.0233341 0.0256424 0.024859 0.0260811 0.0263785 0.0261742 0.0253427 0.0234158 0.0220166 0.0206944 0.0199797 0.0195456 0.0191971 0.0189477 0.018712 0.0184808 0.0182145 0.0192836 0.0193599 0.0200287 0.0215969 0.0244326 0.0247068 0.0229354 0.0172688 0.0171863 0.0217366 0.0225272 0.023045 0.0210305 0.0236574 0.0237848 0.0190525 0.0189853 0.0203879 0.0236202 0.0254622 0.0259259 0.0245431 0.0216973 0.0204106 0.0196221 0.0196471 0.0197672 0.0197287 0.0196705 0.0195853 0.0194908 0.0193714 0.0207131 0.0208829 0.0215371 0.0231452 0.0261812 0.0292563 0.029546 0.0255635 0.0221194 0.0216363 0.0204165 0.0197645 0.0213111 0.0219112 0.0180687 0.0137445 0.0150407 0.018341 0.0228802 0.0255969 0.024068 0.0214801 0.0189723 0.0182794 0.0180146 0.0187895 0.0200278 0.0205423 0.020742 0.0207663 0.0207453 0.0207062 0.021932 0.0221173 0.0226119 0.0237997 0.026077 0.0292029 0.0315232 0.0312856 0.0277318 0.023536 0.0196245 0.0166081 0.0155259 0.013367 0.0106719 0.0105173 0.0138316 0.0174114 0.0234908 0.0273869 0.0205299 0.016512 0.0174049 0.0175914 0.0177036 0.0185554 0.0206055 0.0214852 0.0218495 0.0218999 0.0218949 0.021881 0.0230505 0.023204 0.023559 0.0243356 0.025697 0.0277666 0.0294875 0.0297983 0.0278958 0.0245598 0.020288 0.0159927 0.0131094 0.0112434 0.0106649 0.011713 0.0150662 0.0188135 0.0262716 0.032736 0.0306694 0.0266431 0.0234299 0.0190164 0.0182791 0.0206843 0.021989 0.0230111 0.0233096 0.0232525 0.023136 0.0230384 0.0237792 0.023913 0.0241921 0.0247068 0.0254567 0.0265587 0.0274467 0.0275263 0.0260392 0.0233735 0.0200705 0.016705 0.0141799 0.0123495 0.011542 0.0118883 0.0126459 0.0133107 0.0110449 0.00810499 0.0127661 0.0203068 0.024223 0.0271501 0.0294673 0.0282344 0.0258473 0.0251149 0.0246616 0.0242566 0.0239765 0.0237978 0.0242637 0.0243346 0.0245309 0.0248646 0.0252502 0.0257284 0.0259659 0.0257031 0.0245391 0.0225667 0.0200421 0.0173565 0.01515 0.013546 0.0125938 0.0123708 0.0117323 0.0110643 0.00462383 -0.00133085 0.00615544 0.0176991 0.0247254 0.0314963 0.0353914 0.0325523 0.0290227 0.0270357 0.0258828 0.0251458 0.0246561 0.0243626 0.0243045 0.02438 0.0245427 0.0247767 0.0249762 0.0251327 0.025029 0.0245474 0.0234758 0.0218715 0.0199312 0.0178785 0.0160601 0.0145898 0.0135393 0.0130069 0.0125375 0.0120986 0.0102403 0.0065037 0.00858678 0.0167203 0.0230092 0.027627 0.0302987 0.0291109 0.0274821 0.0262307 0.0254748 0.0249214 0.0245709 0.0243611 0.0241707 0.0242489 0.0243758 0.0245301 0.024616 0.0246045 0.0243491 0.0237924 0.0228312 0.0215029 0.0199238 0.0182517 0.0167076 0.0154365 0.0144513 0.0140516 0.0138708 0.0148706 0.0162579 0.0189666 0.0200041 0.0210982 0.0226126 0.0228159 0.0234265 0.0236314 0.0248761 0.0248815 0.0246974 0.0244637 0.0242834 0.0241824 0.0238285 0.0239545 0.0240851 0.0242026 0.0242306 0.0241396 0.0238277 0.0232651 0.0224007 0.0212714 0.019967 0.0185952 0.0172881 0.0161612 0.0152278 0.0147422 0.0144573 0.0152731 0.0164433 0.0210412 0.0226849 0.0201362 0.0223676 0.022844 0.0208434 0.0220262 0.0232238 0.0235333 0.0236245 0.0236505 0.023684 0.02374 0.0234753 0.0236496 0.0237936 0.023895 0.0238953 0.02377 0.0234493 0.0229166 0.0221467 0.0211737 0.0200634 0.0189023 0.0177857 0.0168126 0.0159902 0.0155158 0.0152001 0.0155807 0.0161628 0.0185287 0.0208025 0.0196136 0.019151 0.0190874 0.0191557 0.0207896 0.0218114 0.0223063 0.0226389 0.0228964 0.0231062 0.0232981 0.023111 0.0233479 0.023529 0.0236451 0.0236507 0.0235263 0.0232219 0.0227285 0.0220346 0.0211727 0.0201989 0.0191846 0.0182073 0.0173462 0.016621 0.0161571 0.0158365 0.0159525 0.0161193 0.0171211 0.0184965 0.0181966 0.0179609 0.0181364 0.0188232 0.0199792 0.0207298 0.021294 0.0217689 0.0221792 0.0225303 0.0228417 0.0228243 0.0231189 0.0233448 0.0234934 0.0235261 0.023425 0.0231501 0.0226943 0.0220522 0.0212545 0.0203519 0.0194114 0.0185085 0.0177149 0.0170646 0.0166335 0.0163616 0.0163692 0.0164615 0.0168425 0.0175126 0.0175682 0.0175363 0.01785 0.0184764 0.0192731 0.0199669 0.0205803 0.0211421 0.0216444 0.0220871 0.0224827 0.0225993 0.0229561 0.0232416 0.0234454 0.0235297 0.0234743 0.0232405 0.0228179 0.0222025 0.0214234 0.0205311 0.0195939 0.0186953 0.0179087 0.0172844 0.0168697 0.016632 0.0166109 0.0166812 0.0168985 0.0172409 0.0173592 0.017518 0.0178412 0.0183242 0.0189274 0.0195303 0.0201231 0.0206984 0.021239 0.0217364 0.0221936 0.0224517 0.0228727 0.0232289 0.0235064 0.0236634 0.0236734 0.0234908 0.0230964 0.0224828 0.0216761 0.0207305 0.0197214 0.0187516 0.0179087 0.017262 0.0168481 0.0166457 0.0166434 0.016757 0.0169582 0.0172231 0.0174 0.0175581 0.0178346 0.0182389 0.018728 0.0192751 0.0198351 0.0204046 0.0209586 0.021488 0.0219898 0.0223533 0.0228475 0.0232907 0.0236649 0.0239198 0.0240199 0.0239051 0.0235399 0.0229103 0.0220348 0.0209743 0.019816 0.0186959 0.0177317 0.0170163 0.0165886 0.0164163 0.0164649 0.0166368 0.0168914 0.0171644 0.0173957 0.0176167 0.0178794 0.0182285 0.0186429 0.0191278 0.019645 0.0201925 0.0207449 0.0212942 0.0218342 
        </DataArray>
        <DataArray Name="vy" NumberOfComponents="1" type="Float32" format="ascii">
0.00987811 0.00987531 0.00999283 0.0102635 0.0107201 0.0113599 0.012182 0.0130994 0.014021 0.0148327 0.0153937 0.0156266 0.0154332 0.0149087 0.0141244 0.0132724 0.0124653 0.0117835 0.0112904 0.0109391 0.0107925 0.0106847 0.0107405 0.0107559 0.0107814 0.0107533 0.0106863 0.0105735 0.0104316 0.0102673 0.0101053 0.00996573 0.00927409 0.00927755 0.00942783 0.00977179 0.0103622 0.0112027 0.0123178 0.0135838 0.0148677 0.0160187 0.0168151 0.0171407 0.0167999 0.015982 0.0147852 0.0135358 0.0124117 0.0115107 0.0109206 0.0105284 0.0104439 0.0103727 0.0104899 0.0104941 0.0104635 0.0103774 0.010243 0.0100831 0.00990127 0.00971088 0.00952667 0.00937134 0.00858817 0.00857192 0.00872823 0.00911577 0.00981489 0.0108371 0.0122896 0.0139714 0.0157648 0.0174302 0.0186067 0.0190999 0.0185482 0.017281 0.0154807 0.0137098 0.0122064 0.0110747 0.0104039 0.0100057 0.0100435 0.0100518 0.0102853 0.0102976 0.0101886 0.010039 0.00981853 0.00960463 0.0093688 0.00913895 0.00891315 0.00872031 0.00788145 0.00782371 0.0079497 0.00831869 0.0090404 0.0101712 0.0119869 0.0142242 0.0166802 0.0190577 0.0208168 0.0216248 0.020765 0.0188855 0.016223 0.0136935 0.0117363 0.0103816 0.00968269 0.0093322 0.00956369 0.00969417 0.0101603 0.0102086 0.00998462 0.00975968 0.00942497 0.00915324 0.00885419 0.00858129 0.00830509 0.00806414 0.0071477 0.00702092 0.00705235 0.00726803 0.00781187 0.00884489 0.0110719 0.0139341 0.0175053 0.0211685 0.0239853 0.0253034 0.0239219 0.0208912 0.0168067 0.0132425 0.0107745 0.00928723 0.0087146 0.0085459 0.00917296 0.00949016 0.0102736 0.010346 0.00982032 0.00947407 0.00899556 0.0086789 0.0083248 0.00801689 0.00768918 0.00739415 0.0065217 0.00629055 0.00610496 0.00589922 0.00588195 0.00658822 0.00946242 0.0136068 0.0185208 0.0234489 0.0275254 0.0298147 0.0278914 0.0238467 0.017928 0.0124469 0.00918985 0.00758669 0.00733583 0.00756043 0.00865294 0.00922024 0.0106925 0.010796 0.00980802 0.00925164 0.00860194 0.0082517 0.00785573 0.00752939 0.00716524 0.0068294 0.00597334 0.0055736 0.00496682 0.00396324 0.00290325 0.00316538 0.00725428 0.012191 0.0188754 0.026048 0.0323378 0.0360334 0.033453 0.0274262 0.0191057 0.0114584 0.00686611 0.00492684 0.00523242 0.0062684 0.00862705 0.0094863 0.0118757 0.0119517 0.00981416 0.00880633 0.00801795 0.0077071 0.00735492 0.00706408 0.00670238 0.00634734 0.00567434 0.00500109 0.0037164 0.00148295 -0.00081661 -0.000287091 0.00668799 0.0150216 0.021937 0.0256832 0.0305243 0.0368484 0.0362696 0.0339633 0.0252614 0.0126239 0.00515396 0.0018334 0.00251599 0.0049055 0.00790862 0.0089252 0.0133569 0.0138953 0.0102473 0.00841503 0.00755721 0.00732654 0.00706036 0.00682077 0.00648525 0.00612573 0.00554809 0.00459428 0.00260987 -0.000427534 -0.00282589 0.000857052 0.011342 0.0145113 0.0193907 0.0244527 0.0295133 0.0358603 0.0349587 0.0329423 0.028864 0.0185101 0.00696343 -0.000853022 -0.00116168 0.00304552 0.00964718 0.00925561 0.0143237 0.0157643 0.0118992 0.00813322 0.00720964 0.00696576 0.00686405 0.00669807 0.00642645 0.00608248 0.00585797 0.00472838 0.00238799 -0.000789019 -0.00187013 0.00320465 0.0092696 0.010816 0.0175435 0.0262308 0.0321381 0.0362603 0.0349883 0.0307969 0.0259661 0.0168341 0.0105687 0.00029483 -0.000678848 0.00490182 0.0097751 0.00926846 0.0140196 0.0152249 0.0113494 0.00763642 0.00710958 0.00705359 0.00708036 0.00695835 0.00673896 0.00642368 0.00647087 0.00544366 0.00334195 0.00128913 0.000883339 0.00122513 0.00506517 0.013224 0.0203721 0.024742 0.0276459 0.0308454 0.0323044 0.032412 0.0264771 0.0150863 0.0108308 -0.00044241 -0.00359548 0.000636187 0.0104228 0.0165989 0.0175032 0.0137833 0.0111086 0.00882959 0.00810134 0.00774152 0.00766912 0.00748203 0.00728048 0.00699851 0.00759049 0.00707561 0.00589069 0.00502472 0.00397738 0.00288017 0.00744309 0.0126197 0.0165082 0.0189038 0.0206969 0.0230707 0.0250899 0.0270219 0.0252975 0.0193671 0.0130647 0.000722331 -0.00271569 0.000665207 0.0145472 0.0233461 0.0199603 0.0119319 0.00970324 0.00886358 0.00880466 0.00846459 0.00837777 0.00819163 0.0080523 0.00789015 0.00895994 0.00905696 0.00918524 0.00883664 0.00824332 0.00768864 0.00803959 0.00878058 0.0107887 0.0122814 0.0136929 0.0155327 0.0172245 0.0193027 0.0200625 0.0188933 0.0153265 0.00892933 0.00737377 0.00980172 0.01654 0.0213041 0.0180986 0.0112683 0.00866872 0.00907896 0.00950986 0.00938787 0.00921546 0.00904436 0.0089595 0.00892362 0.0104458 0.0114478 0.0133664 0.0153195 0.016306 0.0102933 0.00681746 0.0028191 0.00345605 0.00491535 0.00642201 0.00783262 0.00872644 0.00994586 0.0125646 0.0161137 0.015075 0.0176483 0.0164122 0.0160649 0.0192886 0.0207096 0.0175864 0.0135309 0.011949 0.0116841 0.0110272 0.0104673 0.0100536 0.0098438 0.00982598 0.00996501 0.0117525 0.0134272 0.0165852 0.0202102 0.0212339 0.0134324 0.00679666 -0.00147498 -0.00251969 -0.00172267 -0.000629581 0.000650148 0.0013497 0.00261482 0.0060936 0.014633 0.0189113 0.0230708 0.0225737 0.021018 0.020892 0.0206622 0.0182512 0.0159139 0.014205 0.0133186 0.0122229 0.0114332 0.0108738 0.0106341 0.0106689 0.010959 0.0123662 0.0141221 0.0174778 0.021549 0.0222947 0.0163001 0.0126017 -0.00159741 -0.00708761 -0.0082567 -0.00821462 -0.00672195 -0.00538236 -0.00322913 0.00249835 0.0167484 0.0224988 0.0265404 0.0260105 0.0238384 0.0225476 0.0219241 0.0199838 0.0180113 0.0160164 0.0145247 0.0130418 0.0120202 0.0113534 0.0110895 0.0111607 0.0115154 0.0127298 0.0142444 0.0171517 0.0210897 0.0225585 0.0156279 0.00853291 -0.00426737 -0.00301407 -0.00744161 -0.0111238 -0.00906656 -0.00388287 0.00024024 -0.000607094 0.012519 0.0213368 0.0274742 0.0265677 0.02449 0.0232283 0.0231492 0.0215565 0.0196062 0.0173818 0.0154372 0.0137677 0.0125609 0.011803 0.0114927 0.0115723 0.0119434 0.0127055 0.0138023 0.0158851 0.0188774 0.0213699 0.0171684 0.00686449 -0.0046272 -0.00412244 -0.00752174 -0.010541 -0.00580569 -0.000324917 7.89193e-05 -0.00120964 0.010319 0.0212096 0.0256527 0.0246686 0.0238842 0.0237083 0.0244119 0.0230928 0.0205697 0.0181512 0.0156422 0.0138899 0.0126092 0.0118581 0.0115573 0.0116687 0.0120415 0.0126953 0.013457 0.0147429 0.0166469 0.018744 0.0176361 0.0124709 0.00142408 -0.00729472 -0.0104649 -0.0115895 -0.00700117 -0.0031829 -0.00224325 0.00430874 0.014854 0.0206712 0.0223384 0.0210413 0.0216769 0.0247003 0.0274863 0.0259895 0.0218861 0.0182742 0.0151256 0.013684 0.0125966 0.0119429 0.0116599 0.0117792 0.0121356 0.0125379 0.0130257 0.0136456 0.0144293 0.0152541 0.0145012 0.0109687 0.0044768 -0.00172745 -0.00644043 -0.00886754 -0.00685218 -0.00270712 0.00221344 0.0075254 0.0135615 0.0171912 0.0183691 0.0180828 0.0228722 0.0292504 0.0275419 0.0253668 0.0204838 0.0184397 0.0136998 0.0123365 0.0119387 0.011668 0.0115536 0.0117293 0.0120762 0.0124492 0.0127562 0.013 0.0131453 0.0131197 0.0122461 0.00978484 0.00540941 0.000648737 -0.00248392 -0.004127 -0.0028348 -0.000200217 0.00309003 0.00729396 0.0111877 0.0132808 0.0119556 0.00994669 0.0218942 0.0367566 0.031503 0.028076 0.0223252 0.0174548 0.0113369 0.0105608 0.0111775 0.0114783 0.0115919 0.0117979 0.0120947 0.0123683 0.0125185 0.0125282 0.012336 0.0118528 0.0108608 0.00896396 0.00627159 0.00324714 0.0009638 -0.000355782 0.000232776 0.00201501 0.0045248 0.00723404 0.0094713 0.0107131 0.00815687 0.00611485 0.0205014 0.0348497 0.0327449 0.0299431 0.0244918 0.0161366 0.011283 0.0100398 0.0108488 0.0114453 0.0117416 0.011935 0.0121488 0.0123487 0.0123454 0.0122078 0.0118729 0.0112456 0.0102713 0.00875907 0.00689031 0.00486347 0.00344603 0.00266434 0.0030256 0.00410702 0.00573837 0.00772163 0.00974322 0.0115187 0.0124979 0.0136225 0.019795 0.0234712 0.0232465 0.0226356 0.0189077 0.0156583 0.0151353 0.0130159 0.012316 0.0122682 0.0122816 0.0122716 0.0123047 0.0123837 0.0122375 0.0119971 0.0116124 0.0109975 0.0101557 0.00899217 0.00769958 0.00634931 0.00539284 0.00486657 0.00509491 0.00585319 0.00705509 0.00855676 0.0103494 0.0124826 0.0154631 0.0191924 0.0200724 0.0145995 0.0137475 0.01531 0.0133759 0.01447 0.0177948 0.0159886 0.0141297 0.013349 0.0129723 0.0126985 0.0125222 0.0123506 0.0121178 0.0118257 0.0114434 0.0109025 0.0102242 0.00935538 0.00845612 0.00756207 0.00697069 0.00668118 0.00686767 0.00739043 0.00822796 0.00930644 0.0106436 0.0123591 0.0147558 0.0189567 0.0213214 0.0123787 0.00916156 0.0132754 0.0112089 0.0143042 0.0176625 0.0157987 0.0143125 0.0136104 0.0132131 0.0128644 0.0125922 0.0123049 0.0120197 0.0117115 0.0113629 0.0109235 0.010415 0.00980506 0.00920695 0.00863748 0.00827949 0.00813048 0.00830031 0.00869197 0.00929763 0.0100174 0.0109098 0.0118217 0.0131477 0.0149069 0.0172837 0.0127944 0.00996372 0.0130916 0.0118102 0.01486 0.0162793 0.0150562 0.0142664 0.0137714 0.0133592 0.0129597 0.0126155 0.0121498 0.0118687 0.011588 0.0113019 0.0109759 0.0106293 0.0102395 0.00988307 0.00956336 0.00939344 0.00936135 0.00952818 0.00982511 0.0102547 0.0107328 0.0113146 0.0118235 0.0125347 0.0130794 0.014686 0.0127325 0.0106609 0.0117762 0.0127804 0.0145618 0.0147481 0.0142042 0.0138507 0.0135106 0.0131614 0.012795 0.0124602 0.0119461 0.0116938 0.0114634 0.0112556 0.0110486 0.0108557 0.0106595 0.0105038 0.0103821 0.0103557 0.0104081 0.0105723 0.010796 0.0110836 0.0113604 0.0116826 0.0118814 0.0121867 0.0121823 0.0127872 0.0121179 0.011339 0.0120069 0.0125051 0.0134676 0.0136729 0.0135777 0.0134171 0.0131734 0.0128716 0.0125454 0.0122338 0.0116504 0.0114543 0.0112962 0.0111818 0.0110999 0.0110583 0.011042 0.0110687 0.0111218 0.0112238 0.0113504 0.0115108 0.0116659 0.011822 0.0119319 0.0120435 0.0120508 0.012117 0.0119482 0.0121187 0.0117052 0.0114096 0.0117599 0.012102 0.0126572 0.0128399 0.0128772 0.0128035 0.0126362 0.0124044 0.0121428 0.0118854 0.0113068 0.0111699 0.0110883 0.0110718 0.0111179 0.0112292 0.0113915 0.0115989 0.0118226 0.0120525 0.0122522 0.0124116 0.0124971 0.0125205 0.0124616 0.0123713 0.0122025 0.0120655 0.0118146 0.0117259 0.0114732 0.0112727 0.011443 0.0116988 0.0120335 0.0122099 0.0122745 0.0122318 0.0121047 0.0119156 0.0117014 0.0114903 0.0108908 0.0108132 0.0108093 0.0108938 0.0110735 0.0113469 0.0117006 0.0121054 0.012517 0.0128936 0.0131793 0.0133442 0.0133523 0.013227 0.0129787 0.0126763 0.0123296 0.0120191 0.0116964 0.0114912 0.011279 0.0111474 0.0112342 0.0113592 0.0115494 0.0116494 0.0116855 0.0116376 0.011528 0.0113687 0.011193 0.0110247 0.0104234 0.0103918 0.0104556 0.0106368 0.010953 0.0114014 0.0119703 0.0126064 0.0132418 0.0138034 0.0142024 0.0143885 0.0143065 0.014007 0.013527 0.0129797 0.0124267 0.0119383 0.0115368 0.0112407 0.0110593 0.0109251 0.0109699 0.0110388 0.0111357 0.0111778 0.0111695 0.0110972 0.0109806 0.0108278 0.0106688 0.0105243 
        </DataArray>
        <DataArray Name="vz" NumberOfComponents="1" type="Float32" format="ascii">
0 0 0 0 0 0 0 0 0 0 0 0 0 0 0 0 0 0 0 0 0 0 0 0 0 0 0 0 0 0 0 0 0 0 0 0 0 0 0 0 0 0 0 0 0 0 0 0 0 0 0 0 0 0 0 0 0 0 0 0 0 0 0 0 0 0 0 0 0 0 0 0 0 0 0 0 0 0 0 0 0 0 0 0 0 0 0 0 0 0 0 0 0 0 0 0 0 0 0 0 0 0 0 0 0 0 0 0 0 0 0 0 0 0 0 0 0 0 0 0 0 0 0 0 0 0 0 0 0 0 0 0 0 0 0 0 0 0 0 0 0 0 0 0 0 0 0 0 0 0 0 0 0 0 0 0 0 0 0 0 0 0 0 0 0 0 0 0 0 0 0 0 0 0 0 0 0 0 0 0 0 0 0 0 0 0 0 0 0 0 0 0 0 0 0 0 0 0 0 0 0 0 0 0 0 0 0 0 0 0 0 0 0 0 0 0 0 0 0 0 0 0 0 0 0 0 0 0 0 0 0 0 0 0 0 0 0 0 0 0 0 0 0 0 0 0 0 0 0 0 0 0 0 0 0 0 0 0 0 0 0 0 0 0 0 0 0 0 0 0 0 0 0 0 0 0 0 0 0 0 0 0 0 0 0 0 0 0 0 0 0 0 0 0 0 0 0 0 0 0 0 0 0 0 0 0 0 0 0 0 0 0 0 0 0 0 0 0 0 0 0 0 0 0 0 0 0 0 0 0 0 0 0 0 0 0 0 0 0 0 0 0 0 0 0 0 0 0 0 0 0 0 0 0 0 0 0 0 0 0 0 0 0 0 0 0 0 0 0 0 0 0 0 0 0 0 0 0 0 0 0 0 0 0 0 0 0 0 0 0 0 0 0 0 0 0 0 0 0 0 0 0 0 0 0 0 0 0 0 0 0 0 0 0 0 0 0 0 0 0 0 0 0 0 0 0 0 0 0 0 0 0 0 0 0 0 0 0 0 0 0 0 0 0 0 0 0 0 0 0 0 0 0 0 0 0 0 0 0 0 0 0 0 0 0 0 0 0 0 0 0 0 0 0 0 0 0 0 0 0 0 0 0 0 0 0 0 0 0 0 0 0 0 0 0 0 0 0 0 0 0 0 0 0 0 0 0 0 0 0 0 0 0 0 0 0 0 0 0 0 0 0 0 0 0 0 0 0 0 0 0 0 0 0 0 0 0 0 0 0 0 0 0 0 0 0 0 0 0 0 0 0 0 0 0 0 0 0 0 0 0 0 0 0 0 0 0 0 0 0 0 0 0 0 0 0 0 0 0 0 0 0 0 0 0 0 0 0 0 0 0 0 0 0 0 0 0 0 0 0 0 0 0 0 0 0 0 0 0 0 0 0 0 0 0 0 0 0 0 0 0 0 0 0 0 0 0 0 0 0 0 0 0 0 0 0 0 0 0 0 0 0 0 0 0 0 0 0 0 0 0 0 0 0 0 0 0 0 0 0 0 0 0 0 0 0 0 0 0 0 0 0 0 0 0 0 0 0 0 0 0 0 0 0 0 0 0 0 0 0 0 0 0 0 0 0 0 0 0 0 0 0 0 0 0 0 0 0 0 0 0 0 0 0 0 0 0 0 0 0 0 0 0 0 0 0 0 0 0 0 0 0 0 0 0 0 0 0 0 0 0 0 0 0 0 0 0 0 0 0 0 0 0 0 0 0 0 0 0 0 0 0 0 0 0 0 0 0 0 0 0 0 0 0 0 0 0 0 0 0 0 0 0 0 0 0 0 0 0 0 0 0 0 0 0 0 0 0 0 0 0 0 0 0 0 0 0 0 0 0 0 0 0 0 0 0 0 0 0 0 0 0 0 0 0 0 0 0 0 0 0 0 0 0 0 0 0 0 0 0 0 0 0 0 0 0 0 0 0 0 0 0 0 0 0 0 0 0 0 0 0 0 0 0 0 0 0 0 0 0 0 0 0 0 0 0 0 0 0 0 0 0 0 0 0 0 0 0 0 0 0 0 0 0 0 0 0 0 0 0 0 0 0 0 0 0 0 0 0 0 0 0 0 0 0 0 0 0 0 0 0 0 0 0 0 0 0 0 0 0 0 0 0 0 0 0 0 0 0 0 0 0 0 0 0 0 0 0 0 0 0 0 0 0 0 0 0 0 0 0 0 0 0 0 0 0 0 0 0 0 0 0 0 0 0 0 0 0 0 0 0 0 0 0 0 0 0 0 0 0 0 0 0 0 0 0 0 0 0 0 0 0 0 0 0 0 0 0 0 0 0 0 0 0 0 0 0 0 0 0 0 0 0 0 
        </DataArray>
        <DataArray Name="p" NumberOfComponents="1" type="Float32" format="ascii">