<?xml version="1.0"?>
<VTKFile type="StructuredGrid" version="0.1" byte_order="LittleEndian">
  <StructuredGrid WholeExtent="0 32 0 32 0 1">
    <Piece Extent="0 32 0 32 0 1">
      <PointData>
      </PointData>
      <CellData>
        <DataArray Name="vx" NumberOfComponents="1" type="Float32" format="ascii">
0.0213754 0.0217015 0.0220049 0.0222774 0.0224778 0.0225827 0.0225464 0.0223282 0.0219365 0.0213554 0.0206616 0.0198818 0.0190996 0.018416 0.0178699 0.0175626 0.0174334 0.0175013 0.0176791 0.0179371 0.018242 0.0185207 0.0187923 0.0190053 0.0192017 0.0193905 0.0196088 0.0198507 0.0201234 0.0204182 0.0207279 0.0210509 0.0212755 0.0216482 0.0220044 0.0223431 0.0226154 0.022808 0.0228535 0.0226916 0.0223273 0.0217024 0.0209244 0.0200063 0.0190733 0.0182684 0.0176469 0.0173436 0.0172571 0.0174069 0.0176595 0.0179942 0.0183199 0.0185956 0.0188119 0.0189404 0.0190957 0.0192352 0.0194392 0.019669 0.019942 0.020244 0.0205682 0.0209169 0.0211278 0.0215291 0.0219178 0.0223108 0.0226648 0.0229889 0.02318 0.0231254 0.0228051 0.0221278 0.021277 0.0202191 0.0191169 0.018153 0.0173987 0.0171007 0.0170812 0.0173408 0.0176847 0.0181048 0.0184534 0.0187363 0.0188825 0.0188963 0.0189972 0.0190705 0.0192606 0.0194747 0.0197471 0.0200529 0.0203852 0.02075 0.0208889 0.0212839 0.0216664 0.022098 0.0225578 0.0231224 0.0235832 0.0237662 0.0236166 0.0229158 0.0219396 0.0206129 0.0192119 0.0180126 0.0171052 0.0168381 0.0169314 0.0173742 0.0178498 0.0183819 0.0187332 0.0190004 0.0190109 0.0188396 0.0188706 0.0188497 0.0190371 0.0192396 0.019517 0.0198246 0.0201557 0.0205194 0.020529 0.0208734 0.0212201 0.0217093 0.0223949 0.0233955 0.0242903 0.0247081 0.0244989 0.0236021 0.0226987 0.021451 0.0200293 0.0185272 0.0170407 0.0165644 0.0167391 0.0174288 0.0181279 0.0188239 0.0191624 0.0194666 0.0192436 0.0187403 0.0186947 0.0185673 0.0187925 0.0189892 0.019273 0.0195691 0.0198771 0.0202087 0.0200343 0.0202878 0.0205769 0.0211625 0.0221577 0.0237049 0.0247929 0.0251617 0.0249821 0.0241549 0.0237229 0.022935 0.0218166 0.0202422 0.0180754 0.0168171 0.0165702 0.0174579 0.0185005 0.0195466 0.0198842 0.0202547 0.0196346 0.0186897 0.0185831 0.0181977 0.0184821 0.0186744 0.0189769 0.0192589 0.0195299 0.0198014 0.0194394 0.0195797 0.0198338 0.0205642 0.021932 0.0236437 0.0241388 0.0232317 0.0209947 0.0192695 0.0214586 0.025084 0.0280301 0.0273545 0.0225082 0.0186659 0.0169539 0.0174619 0.0188549 0.0202665 0.0205471 0.0214054 0.0203129 0.0186359 0.0185977 0.0179362 0.0183365 0.0185002 0.018781 0.0189936 0.019174 0.0193355 0.0187995 0.0188232 0.0189996 0.0196478 0.0205777 0.0207728 0.0174127 0.0137679 0.0122176 0.0121659 0.0170248 0.0246949 0.0325696 0.0365931 0.0332744 0.0257368 0.0192759 0.0178225 0.0190748 0.0208747 0.0211321 0.0222799 0.020508 0.0194558 0.0200938 0.018041 0.0182384 0.0182627 0.018498 0.0186517 0.0187551 0.0188131 0.0181799 0.0180416 0.0179724 0.0180626 0.0176753 0.0145409 0.0107067 0.0118686 0.0187725 0.0245664 0.0250317 0.0237495 0.0227628 0.0276998 0.0329717 0.0302543 0.0238403 0.0195956 0.0196516 0.0200024 0.0198195 0.0199122 0.0186867 0.0202434 0.0212703 0.0190075 0.0189104 0.0186371 0.0186168 0.0185542 0.018469 0.0183583 0.017669 0.0173987 0.0170692 0.0163837 0.0148039 0.0117638 0.0176692 0.0261195 0.0277507 0.0278167 0.0239706 0.0183399 0.0119139 0.00746087 0.00759201 0.0154255 0.0202346 0.0182264 0.0188189 0.0189036 0.0188022 0.0147879 0.01483 0.0168472 0.0168081 0.0181577 0.0180206 0.0182344 0.0182029 0.0181808 0.0180647 0.0179005 0.0173023 0.0169319 0.016094 0.0153007 0.0126499 0.0149526 0.0206455 0.0212849 0.0200282 0.019079 0.0186463 0.0180413 0.0169102 0.0138727 0.0126394 0.0147211 0.0194106 0.0225681 0.0222373 0.023192 0.022871 0.0164303 0.0138935 0.0144283 0.0150558 0.0182811 0.018682 0.0187432 0.0184846 0.0182444 0.0179564 0.0176669 0.0171394 0.0166692 0.0157486 0.0142758 0.0125092 0.0136458 0.0134362 0.0118104 0.0130244 0.0147982 0.0169039 0.0187623 0.0211177 0.0229234 0.0260086 0.0263839 0.0286731 0.0300366 0.0249197 0.0205579 0.0165225 0.0112221 0.0109986 0.0141824 0.0156984 0.0177417 0.0180789 0.0182521 0.0180972 0.0179396 0.0177151 0.0174547 0.0170716 0.0164392 0.0149496 0.0126982 0.00939374 0.0078735 0.00698699 0.00748996 0.0109173 0.0138441 0.0169462 0.0196086 0.0232177 0.0268281 0.0322067 0.034181 0.0347317 0.0345471 0.0295592 0.0238771 0.0209282 0.0215938 0.0218217 0.0204791 0.0195674 0.0198938 0.0193073 0.0189463 0.0185097 0.0181615 0.0178302 0.0174948 0.0174071 0.0170445 0.0161291 0.0146909 0.0133769 0.0122872 0.00935431 0.0092543 0.0124549 0.0148091 0.0176967 0.0202962 0.02395 0.0274989 0.0327701 0.0347464 0.0333483 0.0325303 0.0297817 0.0265106 0.0247569 0.0268285 0.027471 0.0248148 0.022369 0.0208585 0.0196038 0.018968 0.0184974 0.0181766 0.017916 0.0176746 0.0180079 0.0179339 0.0177486 0.0176177 0.0169668 0.020098 0.0190079 0.0154189 0.0164285 0.0170757 0.0190505 0.0212738 0.0242407 0.0263888 0.0296399 0.0282427 0.0266108 0.0290134 0.0279591 0.0264071 0.0254107 0.026465 0.0266628 0.0246291 0.0224424 0.02098 0.0198945 0.0192603 0.0188126 0.018501 0.0182888 0.0181116 0.0185945 0.0188302 0.0193853 0.0207003 0.0217166 0.0268136 0.0298174 0.0295051 0.0282372 0.0235885 0.0214543 0.0211378 0.0212808 0.0187667 0.0185639 0.0173202 0.0195677 0.0251932 0.0250833 0.0253073 0.0250862 0.0254008 0.0250271 0.0236831 0.0221283 0.0209116 0.0200293 0.0194486 0.0190698 0.0188137 0.018668 0.0185671 0.0191396 0.0191975 0.0198616 0.0203638 0.0217888 0.0182686 0.0224171 0.0328813 0.0338795 0.0297672 0.0242078 0.0201593 0.0164485 0.0137303 0.0138236 0.0243792 0.0297338 0.0255905 0.0251089 0.0246073 0.0243067 0.0238889 0.0233533 0.0228751 0.0220719 0.0210763 0.0204214 0.0199054 0.0195838 0.0193579 0.0192388 0.0191244 0.0196429 0.0195242 0.0199043 0.0200507 0.0208036 0.015707 0.0104672 0.00820591 0.010257 0.0168823 0.0191141 0.019685 0.0197664 0.0246093 0.0285349 0.0306419 0.0286728 0.0235173 0.0238502 0.0242652 0.0240855 0.0227703 0.021744 0.0220151 0.021924 0.0212018 0.020874 0.0204954 0.0202284 0.0200096 0.0198736 0.0197194 0.020394 0.0202291 0.020479 0.0208129 0.022096 0.0212058 0.0176157 0.0122828 0.00979019 0.013788 0.019235 0.024407 0.0277063 0.03048 0.0287682 0.0249701 0.0226471 0.0216326 0.0232407 0.0237598 0.0215555 0.0189545 0.0190518 0.0221744 0.0233382 0.0217361 0.0213985 0.02119 0.020986 0.0208043 0.0206631 0.0205029 0.0210875 0.0208628 0.0208953 0.0210175 0.0220553 0.0225836 0.0225014 0.0213714 0.0186864 0.0180725 0.0192103 0.0208302 0.0221943 0.0221615 0.0197737 0.0187575 0.0194267 0.0207011 0.0238059 0.0249894 0.021736 0.0189573 0.0184701 0.0216284 0.0242301 0.0225101 0.0219722 0.0220016 0.0218427 0.0216603 0.0214616 0.0212567 0.0218056 0.0216158 0.0215707 0.0215877 0.0221768 0.0228241 0.0233094 0.0230324 0.0216985 0.0208024 0.0198398 0.0189362 0.0182706 0.0178946 0.0173109 0.017812 0.0195202 0.0217608 0.0246009 0.0259127 0.0261152 0.0263852 0.0248102 0.019862 0.0223291 0.0246931 0.0220763 0.0224644 0.0223361 0.0223143 0.0221452 0.0219682 0.0223336 0.0221621 0.0220846 0.0220335 0.0222822 0.0226313 0.0230218 0.0230831 0.0222042 0.021157 0.0198649 0.0185279 0.0174812 0.0167676 0.0162756 0.0167267 0.0174878 0.0184943 0.0174872 0.0202424 0.0251384 0.0257674 0.0253298 0.0211401 0.0230255 0.0256918 0.023692 0.0235891 0.0232146 0.0230293 0.022759 0.0225243 0.0226555 0.0225345 0.0224717 0.0224192 0.0224799 0.0225622 0.0226241 0.022487 0.0218528 0.0210241 0.0198868 0.0186786 0.0176507 0.0170264 0.0167552 0.0171348 0.0180074 0.0187924 0.0208273 0.0230681 0.0222922 0.0219042 0.0218524 0.020469 0.0136363 0.0140559 0.0211687 0.0219831 0.0228766 0.0229903 0.0229448 0.022796 0.0227745 0.0226713 0.0226199 0.0225796 0.0225682 0.0225259 0.0224122 0.0221522 0.0215568 0.0207864 0.019802 0.0187523 0.0177947 0.0170619 0.0165438 0.016455 0.0165854 0.0170137 0.0165357 0.0193247 0.0213547 0.0206897 0.0199208 0.0185439 0.019403 0.0214274 0.0233239 0.0234893 0.0235057 0.0233219 0.0231225 0.0229238 0.0227092 0.0226476 0.0226145 0.0225837 0.0225384 0.0224365 0.0222347 0.0219003 0.0213442 0.0206478 0.0197879 0.0188742 0.0179858 0.0172463 0.0166217 0.0162312 0.0160137 0.0155533 0.0149678 0.0112292 0.0129723 0.0182048 0.016677 0.0165505 0.0212216 0.0233781 0.0227728 0.023056 0.023084 0.0230118 0.0229148 0.0227994 0.0225375 0.0225081 0.0224937 0.0224727 0.0224173 0.0222964 0.0220692 0.0217188 0.0211958 0.0205521 0.019786 0.0189735 0.0181537 0.0174169 0.0167312 0.0162207 0.0158703 0.0155946 0.015944 0.0146762 0.01613 0.0203887 0.0246278 0.0276138 0.0260745 0.0244062 0.0236307 0.0232729 0.0230185 0.0228118 0.0226875 0.0225931 0.0223024 0.0223253 0.0223399 0.022333 0.0222778 0.0221532 0.0219254 0.021585 0.0211064 0.0205237 0.0198431 0.0191248 0.0183881 0.0177113 0.0170522 0.0165149 0.0160583 0.0156871 0.0158055 0.0160487 0.0174 0.019302 0.0234227 0.0263232 0.024483 0.0230886 0.0226496 0.0224182 0.022318 0.0222677 0.0222719 0.0222819 0.022063 0.0221348 0.0221841 0.0222006 0.0221599 0.0220462 0.0218326 0.0215124 0.0210727 0.0205384 0.0199231 0.0192759 0.0186123 0.0179988 0.0174014 0.016914 0.0164844 0.0161613 0.0161419 0.0163525 0.0176583 0.018941 0.0208047 0.022247 0.0219532 0.0219011 0.0218386 0.0217747 0.0217786 0.0218207 0.0218998 0.0219817 0.0218532 0.0219768 0.0220666 0.0221148 0.0220991 0.0220065 0.0218144 0.0215164 0.0211074 0.0206064 0.0200332 0.0194317 0.0188223 0.0182668 0.0177435 0.0173299 0.0169779 0.0167308 0.0166717 0.0167678 0.0175549 0.0183699 0.0195826 0.0206403 0.0207679 0.0209155 0.0209857 0.0210806 0.0212196 0.0213781 0.0215482 0.0217084 0.0216823 0.0218551 0.0219908 0.0220814 0.0221038 0.0220442 0.0218803 0.0216031 0.0212123 0.0207219 0.0201597 0.0195665 0.0189728 0.01844 0.0179627 0.0176101 0.0173394 0.0171938 0.0171905 0.0172951 0.0178048 0.0183351 0.0190518 0.0197061 0.0199753 0.020241 0.0204225 0.0206176 0.0208282 0.0210493 0.0212728 0.0214865 0.0215566 0.021779 0.0219657 0.022108 0.0221793 0.0221625 0.0220319 0.0217723 0.0213869 0.0208845 0.0203035 0.0196827 0.0190664 0.0185212 0.0180571 0.017741 0.017534 0.0174658 0.0175182 0.0176553 0.0180121 0.0183837 0.0188706 0.0193163 0.0195721 0.0198235 0.0200398 0.0202765 0.0205289 0.0207918 0.0210564 0.0213144 0.0214588 0.0217328 0.0219768 0.0221813 0.0223132 0.0223516 0.0222627 0.0220218 0.0216349 0.0211001 0.0204705 0.0197828 0.0190997 0.0185013 0.0180129 0.0177092 0.0175461 0.0175476 0.017661 0.0178548 0.0181629 0.0184619 0.0188053 0.0191073 0.0193393 0.0195685 0.0197949 0.0200423 0.0203096 0.0205922 0.020882 0.0211744 
        </DataArray>
        <DataArray Name="vy" NumberOfComponents="1" type="Float32" format="ascii">
0.0103039 0.0102724 0.0103255 0.0104753 0.0107521 0.0111372 0.0116433 0.0121933 0.0127499 0.013238 0.0135784 0.0137656 0.0137103 0.0134836 0.0130799 0.0126186 0.0121682 0.0117934 0.0115501 0.0114053 0.0114073 0.0113839 0.0114562 0.0113842 0.0113408 0.0112282 0.0111093 0.0109709 0.0108197 0.0106682 0.0105195 0.0103931 0.00996156 0.00993425 0.0100116 0.0102088 0.0105719 0.0110784 0.0117601 0.0125025 0.0132562 0.0139011 0.0143413 0.014583 0.0144813 0.0141389 0.0135324 0.0128336 0.0121826 0.0116358 0.0113015 0.0110973 0.011112 0.0111142 0.0112503 0.0111988 0.0111693 0.0110331 0.0108869 0.0107174 0.0105378 0.0103643 0.0101969 0.0100575 0.00957334 0.00954138 0.00963255 0.00986039 0.0102888 0.0108912 0.0117589 0.0127072 0.0137337 0.0146379 0.0152793 0.0156263 0.0154509 0.0149095 0.0140042 0.0130017 0.0121088 0.0113786 0.0109685 0.0107306 0.0108169 0.0108727 0.0111358 0.0110809 0.0110681 0.0108781 0.0106862 0.0104678 0.0102475 0.0100422 0.00984666 0.00968507 0.00918387 0.00914323 0.00923483 0.00946379 0.00990551 0.0105744 0.011647 0.0128958 0.0142799 0.015426 0.0162214 0.0167088 0.0165112 0.015861 0.014596 0.0131552 0.0119638 0.0110313 0.0105632 0.0103179 0.0105148 0.0106469 0.0111433 0.0110339 0.0110229 0.0107334 0.0104868 0.0102153 0.00995718 0.00972211 0.00949856 0.00931361 0.00881106 0.00876138 0.00882068 0.00896145 0.00926403 0.00984275 0.0111115 0.0126217 0.0145527 0.0162936 0.0176139 0.0183991 0.0180668 0.0170151 0.0151646 0.0131782 0.0115778 0.0104368 0.00997155 0.00979407 0.0102375 0.0105026 0.011396 0.0111196 0.0111533 0.0106846 0.0103473 0.00999148 0.0096811 0.00940856 0.00915665 0.00895283 0.00851646 0.00844772 0.00840221 0.0082955 0.00823656 0.00871508 0.0103947 0.0127631 0.0155297 0.0172245 0.0182871 0.0192361 0.0192944 0.0189141 0.0166032 0.0134624 0.0111255 0.00963861 0.00922498 0.00925799 0.00999085 0.0104288 0.0120881 0.0114046 0.0112923 0.0105054 0.0100709 0.00967272 0.00936245 0.00909567 0.00884965 0.00865344 0.0083319 0.00821991 0.00794635 0.00737163 0.00671751 0.00714906 0.00968392 0.0122212 0.0153709 0.0174419 0.0189826 0.0205131 0.0208223 0.0206951 0.0184944 0.0147804 0.0109591 0.0084902 0.0079005 0.00827009 0.00962704 0.0104526 0.013317 0.0117951 0.0119616 0.0107076 0.0100281 0.00951692 0.00916023 0.00887762 0.00863546 0.00845773 0.00825801 0.00803972 0.00740895 0.00620239 0.00515 0.00656442 0.0108413 0.0161904 0.0202665 0.0167862 0.0122319 0.0120722 0.0164566 0.024977 0.0255445 0.0188958 0.0122647 0.00769616 0.00650249 0.00752838 0.00915643 0.0101959 0.0155642 0.0125657 0.0122463 0.0104368 0.00951204 0.00907189 0.00882451 0.00864139 0.00847886 0.0083633 0.00833823 0.00803293 0.00712231 0.00580054 0.00563643 0.0102589 0.0173088 0.016591 0.0157925 0.0120929 0.0070493 0.00591465 0.00909068 0.0191301 0.0288957 0.029513 0.0190667 0.00877715 0.00486368 0.00594143 0.00833566 0.0103369 0.0174041 0.0111077 0.0141381 0.0124196 0.0100863 0.00931986 0.0088931 0.00867532 0.00852143 0.00843943 0.00854734 0.00819976 0.00736281 0.00638822 0.00855945 0.0132445 0.0124036 0.0086514 0.00892341 0.0117134 0.0130558 0.0139157 0.0133433 0.0157704 0.0233872 0.0264464 0.0223523 0.0118085 0.00611599 0.00753486 0.00970744 0.0110394 0.0151863 0.00912641 0.0140161 0.0124599 0.00991085 0.00915979 0.00882903 0.00869429 0.00862281 0.00860601 0.00887616 0.00867277 0.00817279 0.00815248 0.0103129 0.00792501 0.00354105 0.00713711 0.0125891 0.0150767 0.0159989 0.0175831 0.0192731 0.0220172 0.0217182 0.018025 0.0170131 0.0101141 0.00407402 0.00583902 0.0116908 0.0152134 0.0150908 0.0105709 0.0121923 0.0111249 0.00985314 0.00926067 0.00902291 0.00889955 0.00885994 0.00888032 0.00926549 0.00926059 0.0090955 0.00925483 0.00974902 0.00474172 0.00579692 0.00890115 0.0118839 0.0134577 0.0143438 0.0159353 0.0179479 0.0208316 0.0216646 0.0190133 0.0134195 0.0102984 0.00536624 0.00726914 0.0168297 0.0208177 0.0141628 0.00875284 0.00962708 0.00964494 0.00956203 0.0093687 0.00924852 0.00915417 0.00914407 0.00919616 0.00974307 0.0101228 0.0107544 0.0114037 0.0115547 0.00584187 0.00599655 0.00724642 0.00952534 0.0109727 0.0119548 0.0133271 0.0149422 0.0171915 0.0181218 0.016837 0.0126373 0.014005 0.0125962 0.0137356 0.0201283 0.0216036 0.0124259 0.00769396 0.00798815 0.00848013 0.00914938 0.00933743 0.00938718 0.00936695 0.00940698 0.00950956 0.010285 0.0112171 0.0127153 0.0144638 0.0138184 0.00776038 0.00674832 0.00499612 0.00584594 0.00742491 0.00862911 0.00973945 0.0106897 0.0120805 0.0140826 0.0162184 0.0132308 0.0152818 0.016598 0.0167034 0.0194375 0.0199425 0.0142405 0.0104763 0.0101424 0.0102228 0.0103719 0.0101446 0.0099316 0.00977644 0.00975868 0.00988915 0.0104885 0.011572 0.013411 0.0151899 0.0138857 0.00964741 0.00806892 0.00356502 0.00383534 0.00565933 0.00655272 0.007186 0.00757803 0.00844636 0.010377 0.015799 0.0152982 0.0169963 0.0188491 0.0189274 0.0195104 0.0187711 0.0154038 0.0126754 0.0119583 0.0113986 0.0110516 0.0105697 0.0102312 0.0100173 0.00996402 0.010073 0.0104127 0.0113179 0.0128624 0.0144156 0.0111481 0.00517104 0.0133274 0.00817166 0.00439896 0.00468277 0.00432226 0.0044828 0.00538476 0.00701364 0.0123995 0.0211524 0.0112519 0.0140051 0.0186606 0.0192256 0.0192791 0.0184 0.0163186 0.01438 0.013681 0.0127486 0.0119761 0.0111907 0.0106273 0.0102695 0.0101154 0.0101308 0.0102819 0.0108278 0.0118297 0.0128968 0.00923299 0.00082954 0.00392891 0.00423767 0.00938231 0.0128043 0.009482 0.0077375 0.00983306 0.0115845 0.0105833 0.0140347 0.00679549 0.0131699 0.0186638 0.0192425 0.0194053 0.0189079 0.017387 0.0156332 0.0148152 0.0135944 0.0125455 0.0115859 0.0108872 0.0104437 0.0102279 0.0101665 0.0102962 0.0106102 0.0114912 0.0126047 0.0122576 0.00600885 -0.000622575 -0.00116128 0.00666179 0.0135259 0.0135788 0.0117951 0.0110829 0.00865232 0.00324709 0.00584063 0.0109892 0.0175349 0.0196733 0.0197893 0.0198473 0.0192126 0.0172974 0.0153698 0.015435 0.014361 0.0131152 0.0120289 0.011166 0.0106184 0.0103411 0.0102381 0.010431 0.0105895 0.0111721 0.0120671 0.0130996 0.0111769 0.00924486 0.00392086 0.00183957 0.0045127 0.00699603 0.00708818 0.00581716 0.0038761 0.00495186 0.0116969 0.0144833 0.0176062 0.0181356 0.0191625 0.0207665 0.021389 0.0184148 0.0155827 0.0157807 0.0146765 0.0132267 0.0122148 0.0113419 0.0107803 0.0104918 0.0103927 0.0105602 0.0106022 0.0108616 0.0112024 0.011876 0.0110068 0.00949379 0.00630847 0.00463882 0.00383463 0.00323396 0.0036223 0.00484088 0.00648425 0.00842805 0.0125528 0.0148467 0.0167229 0.0176376 0.0214522 0.0238637 0.0222048 0.0141533 0.0101545 0.01594 0.0164637 0.0136794 0.0125572 0.0115901 0.0109923 0.0106602 0.0105445 0.0107673 0.0107865 0.010892 0.0109385 0.0112433 0.0107326 0.00999627 0.00760198 0.00548821 0.00431831 0.00366618 0.00393892 0.00495205 0.00646367 0.00861042 0.0115383 0.0127487 0.0129667 0.0139721 0.023229 0.025667 0.0245409 0.0158321 0.0101024 0.0151113 0.0168802 0.0134154 0.012222 0.0115319 0.0110938 0.0108324 0.0107432 0.0109227 0.0108972 0.0108783 0.0107262 0.0106438 0.0100969 0.00943535 0.00799946 0.00675057 0.00569811 0.00502005 0.00513675 0.0059167 0.00721256 0.00863556 0.010358 0.0111886 0.0114439 0.0130592 0.0183011 0.0230991 0.0248408 0.0205737 0.0127174 0.00927052 0.0184869 0.0158087 0.0127426 0.0118597 0.0113205 0.0110579 0.0109377 0.0110843 0.0110319 0.0109599 0.0107584 0.0105357 0.0100118 0.009424 0.00840349 0.00744225 0.0067077 0.00623517 0.00630123 0.00678107 0.00760839 0.00865379 0.00998763 0.0109537 0.0118848 0.0130886 0.0160183 0.0224978 0.0229774 0.0207643 0.0144249 0.011378 0.015206 0.0140662 0.0122584 0.0117079 0.011396 0.0112307 0.011126 0.0112097 0.0111153 0.0109928 0.0107714 0.0104948 0.0100313 0.00951816 0.00881666 0.00817939 0.00766516 0.00733296 0.00734928 0.00761785 0.00812006 0.00869298 0.00941156 0.00990633 0.0100958 0.00934781 0.0132317 0.0254752 0.0236983 0.0216175 0.0179429 0.016298 0.010274 0.0107604 0.0114155 0.011428 0.0114384 0.011377 0.0112887 0.0113105 0.0111811 0.0110307 0.0108192 0.0105568 0.0101817 0.00976559 0.00926472 0.00880665 0.00847046 0.00826404 0.00829217 0.00847189 0.00880226 0.00921048 0.00975661 0.0103155 0.0111234 0.0114569 0.0118619 0.0228689 0.023723 0.0239857 0.0149866 0.0100265 0.00954118 0.0111657 0.0115197 0.0115894 0.0116093 0.0115432 0.0114309 0.0113772 0.0112228 0.0110573 0.0108634 0.0106378 0.0103563 0.0100501 0.00971868 0.00942244 0.00921706 0.00910131 0.00914122 0.00926678 0.00949117 0.00973822 0.0100791 0.0104853 0.0111827 0.0127307 0.0144008 0.0178222 0.0206176 0.0229093 0.0139021 0.00924367 0.00986868 0.0110926 0.0114376 0.0116432 0.0117156 0.0116531 0.0115265 0.0113847 0.0112218 0.0110619 0.0108996 0.0107269 0.0105361 0.010337 0.0101413 0.0099732 0.00987813 0.00984286 0.00991137 0.0100254 0.0102025 0.0103812 0.0106202 0.0108768 0.0112917 0.0122647 0.0135613 0.0159248 0.0161582 0.0168096 0.0136321 0.0122296 0.0120939 0.0119729 0.0119331 0.0119118 0.0118533 0.0117182 0.0115559 0.0113408 0.011188 0.0110498 0.0109282 0.010816 0.0107124 0.0106164 0.0105384 0.010482 0.010476 0.010502 0.0105902 0.0106908 0.0108275 0.01094 0.0110967 0.0112425 0.0115052 0.0120545 0.0129324 0.0142108 0.0145556 0.0151469 0.0134456 0.0123251 0.012037 0.0118967 0.0119042 0.0118794 0.011808 0.0116692 0.0115079 0.0112294 0.0110997 0.0109969 0.0109256 0.0108819 0.0108655 0.0108709 0.0109013 0.0109478 0.0110241 0.0111058 0.0112128 0.0113019 0.0114 0.0114576 0.0115416 0.0115982 0.0117403 0.0119922 0.01243 0.0131168 0.0131977 0.0134753 0.0127748 0.0123695 0.0121488 0.011989 0.0119144 0.0118152 0.0116964 0.0115421 0.0113827 0.0110744 0.010974 0.0109121 0.0108952 0.0109243 0.010997 0.0111065 0.0112443 0.011392 0.0115471 0.011678 0.0117971 0.0118622 0.0119046 0.0118852 0.0118721 0.0118278 0.0118522 0.0119322 0.0121287 0.0124645 0.0125281 0.0127116 0.0123089 0.0120588 0.0118961 0.0117859 0.0117121 0.0116123 0.011493 0.0113491 0.0112053 0.0108615 0.0107911 0.0107724 0.010813 0.0109207 0.0110889 0.0113129 0.0115683 0.0118292 0.0120744 0.0122612 0.0123947 0.0124286 0.0124012 0.0122867 0.012159 0.0120055 0.0119111 0.0118617 0.0118965 0.012024 0.0120132 0.0120998 0.0119081 0.0118033 0.0116853 0.0115862 0.0114886 0.0113714 0.0112422 0.011102 0.0109707 0.0106107 0.0105641 0.0105844 0.0106813 0.0108718 0.0111445 0.0114985 0.0118891 0.0122799 0.0126285 0.0128775 0.0130301 0.0130245 0.0129114 0.0126728 0.012397 0.0121091 0.0118806 0.0117291 0.0116591 0.0116959 0.0116726 0.0117348 0.0116172 0.0115503 0.0114444 0.0113444 0.0112326 0.0111042 0.0109684 0.010829 0.010705 
        </DataArray>
        <DataArray Name="vz" NumberOfComponents="1" type="Float32" format="ascii">
0 0 0 0 0 0 0 0 0 0 0 0 0 0 0 0 0 0 0 0 0 0 0 0 0 0 0 0 0 0 0 0 0 0 0 0 0 0 0 0 0 0 0 0 0 0 0 0 0 0 0 0 0 0 0 0 0 0 0 0 0 0 0 0 0 0 0 0 0 0 0 0 0 0 0 0 0 0 0 0 0 0 0 0 0 0 0 0 0 0 0 0 0 0 0 0 0 0 0 0 0 0 0 0 0 0 0 0 0 0 0 0 0 0 0 0 0 0 0 0 0 0 0 0 0 0 0 0 0 0 0 0 0 0 0 0 0 0 0 0 0 0 0 0 0 0 0 0 0 0 0 0 0 0 0 0 0 0 0 0 0 0 0 0 0 0 0 0 0 0 0 0 0 0 0 0 0 0 0 0 0 0 0 0 0 0 0 0 0 0 0 0 0 0 0 0 0 0 0 0 0 0 0 0 0 0 0 0 0 0 0 0 0 0 0 0 0 0 0 0 0 0 0 0 0 0 0 0 0 0 0 0 0 0 0 0 0 0 0 0 0 0 0 0 0 0 0 0 0 0 0 0 0 0 0 0 0 0 0 0 0 0 0 0 0 0 0 0 0 0 0 0 0 0 0 0 0 0 0 0 0 0 0 0 0 0 0 0 0 0 0 0 0 0 0 0 0 0 0 0 0 0 0 0 0 0 0 0 0 0 0 0 0 0 0 0 0 0 0 0 0 0 0 0 0 0 0 0 0 0 0 0 0 0 0 0 0 0 0 0 0 0 0 0 0 0 0 0 0 0 0 0 0 0 0 0 0 0 0 0 0 0 0 0 0 0 0 0 0 0 0 0 0 0 0 0 0 0 0 0 0 0 0 0 0 0 0 0 0 0 0 0 0 0 0 0 0 0 0 0 0 0 0 0 0 0 0 0 0 0 0 0 0 0 0 0 0 0 0 0 0 0 0 0 0 0 0 0 0 0 0 0 0 0 0 0 0 0 0 0 0 0 0 0 0 0 0 0 0 0 0 0 0 0 0 0 0 0 0 0 0 0 0 0 0 0 0 0 0 0 0 0 0 0 0 0 0 0 0 0 0 0 0 0 0 0 0 0 0 0 0 0 0 0 0 0 0 0 0 0 0 0 0 0 0 0 0 0 0 0 0 0 0 0 0 0 0 0 0 0 0 0 0 0 0 0 0 0 0 0 0 0 0 0 0 0 0 0 0 0 0 0 0 0 0 0 0 0 0 0 0 0 0 0 0 0 0 0 0 0 0 0 0 0 0 0 0 0 0 0 0 0 0 0 0 0 0 0 0 0 0 0 0 0 0 0 0 0 0 0 0 0 0 0 0 0 0 0 0 0 0 0 0 0 0 0 0 0 0 0 0 0 0 0 0 0 0 0 0 0 0 0 0 0 0 0 0 0 0 0 0 0 0 0 0 0 0 0 0 0 0 0 0 0 0 0 0 0 0 0 0 0 0 0 0 0 0 0 0 0 0 0 0 0 0 0 0 0 0 0 0 0 0 0 0 0 0 0 0 0 0 0 0 0 0 0 0 0 0 0 0 0 0 0 0 0 0 0 0 0 0 0 0 0 0 0 0 0 0 0 0 0 0 0 0 0 0 0 0 0 0 0 0 0 0 0 0 0 0 0 0 0 0 0 0 0 0 0 0 0 0 0 0 0 0 0 0 0 0 0 0 0 0 0 0 0 0 0 0 0 0 0 0 0 0 0 0 0 0 0 0 0 0 0 0 0 0 0 0 0 0 0 0 0 0 0 0 0 0 0 0 0 0 0 0 0 0 0 0 0 0 0 0 0 0 0 0 0 0 0 0 0 0 0 0 0 0 0 0 0 0 0 0 0 0 0 0 0 0 0 0 0 0 0 0 0 0 0 0 0 0 0 0 0 0 0 0 0 0 0 0 0 0 0 0 0 0 0 0 0 0 0 0 0 0 0 0 0 0 0 0 0 0 0 0 0 0 0 0 0 0 0 0 0 0 0 0 0 0 0 0 0 0 0 0 0 0 0 0 0 0 0 0 0 0 0 0 0 0 0 0 0 0 0 0 0 0 0 0 0 0 0 0 0 0 0 0 0 0 0 0 0 0 0 0 0 0 0 0 0 0 0 0 0 0 0 0 0 0 0 0 0 0 0 0 0 0 0 0 0 0 0 0 0 0 0 0 0 0 0 0 0 0 0 0 0 0 0 0 0 0 0 0 0 0 0 0 0 0 0 0 0 0 0 0 0 0 0 0 0 0 0 0 0 0 0 0 0 0 0 0 0 0 0 0 0 0 0 0 0 0 0 0 0 
        </DataArray>
        <DataArray Name="p" NumberOfComponents="1" type="Float32" format="ascii">