<?xml version="1.0"?>
<VTKFile type="StructuredGrid" version="0.1" byte_order="LittleEndian">
  <StructuredGrid WholeExtent="0 32 0 32 0 1">
    <Piece Extent="0 32 0 32 0 1">
      <PointData>
      </PointData>
      <CellData>
        <DataArray Name="vx" NumberOfComponents="1" type="Float32" format="ascii">
0.0205147 0.0206008 0.0206727 0.0207304 0.0207539 0.0207441 0.0206814 0.0205644 0.0204055 0.0202059 0.0200025 0.0197669 0.0195303 0.0193062 0.0191033 0.0189908 0.0189521 0.0189952 0.0191043 0.0192609 0.0194589 0.0196791 0.0198685 0.0199907 0.0200628 0.0200956 0.0201188 0.0201497 0.0202003 0.0202643 0.0203427 0.0204281 0.0203912 0.0204924 0.0205708 0.0206334 0.0206567 0.0206597 0.0206127 0.0205213 0.0204026 0.020246 0.020097 0.0198843 0.0196663 0.019451 0.0192457 0.0191617 0.0191534 0.0192538 0.01939 0.019582 0.0197351 0.0198839 0.0199345 0.0199101 0.019905 0.0198672 0.0198926 0.0199189 0.0199944 0.0200765 0.0201793 0.020286 0.0202382 0.0203322 0.0203887 0.0204286 0.0204348 0.0204547 0.0204376 0.0203859 0.0203014 0.0202045 0.0201853 0.0200755 0.0199594 0.0197786 0.0195277 0.0194504 0.0194644 0.0196106 0.0197591 0.0199734 0.0200653 0.0201508 0.0200478 0.019846 0.0197562 0.019639 0.0196681 0.0196895 0.0197915 0.0198892 0.0200118 0.0201299 0.0200215 0.0200741 0.0200634 0.0200457 0.0200173 0.0200866 0.0201322 0.0201637 0.0201988 0.0202629 0.0204609 0.0204783 0.0204857 0.0203539 0.0200354 0.0199222 0.0199285 0.0201194 0.0202806 0.0205295 0.0205433 0.0205647 0.0202395 0.0197778 0.0195863 0.0193678 0.0194094 0.0194277 0.0195629 0.0196765 0.0198154 0.019933 0.0197575 0.0197328 0.0196251 0.0195456 0.0195346 0.0197162 0.0198337 0.0198279 0.0196603 0.0197809 0.0205388 0.0211918 0.0218817 0.0219466 0.0211966 0.0207509 0.0206068 0.0207781 0.0209653 0.0212703 0.0211792 0.0211499 0.0204905 0.0196122 0.0193139 0.0190068 0.0191038 0.0191523 0.0193416 0.0194747 0.0196215 0.0197189 0.0194345 0.0193143 0.0190908 0.01896 0.0189404 0.0191204 0.0188547 0.0182627 0.0178296 0.0184146 0.02041 0.0224412 0.0245497 0.0253438 0.0241065 0.0226565 0.0216928 0.0215219 0.0216963 0.0221756 0.0220571 0.0220848 0.0209217 0.0193939 0.0190086 0.0185972 0.0187634 0.0188483 0.0190943 0.0192467 0.0193961 0.0194635 0.0191458 0.0189352 0.0186223 0.0184453 0.0183584 0.0179616 0.016514 0.0142019 0.0114634 0.0119391 0.0170714 0.0234426 0.0304998 0.033596 0.0305904 0.0267577 0.023963 0.0225556 0.0224595 0.0230485 0.022934 0.0231871 0.0213816 0.0190714 0.0187856 0.0182842 0.0184832 0.018634 0.0189345 0.0191007 0.019234 0.0192552 0.018949 0.0187102 0.0183246 0.0179676 0.0171029 0.0146168 0.00933621 0.00360847 0.00179089 0.00611134 0.0144003 0.0234787 0.0339661 0.0420299 0.0414566 0.0351252 0.0283357 0.0240303 0.0228924 0.0234655 0.0235994 0.0241524 0.0215597 0.0184325 0.0187159 0.0184523 0.0184888 0.0185916 0.0188411 0.0189876 0.0190935 0.0190931 0.0189137 0.0186834 0.0181632 0.0173456 0.0152172 0.00949783 0.00519002 0.00461875 0.0112119 0.0204454 0.0235102 0.0247709 0.0253936 0.0316382 0.0376532 0.0379907 0.0336118 0.0260942 0.0230427 0.0225451 0.0230585 0.0217452 0.019058 0.0186984 0.0194855 0.0191094 0.0185988 0.018675 0.0188616 0.0190008 0.0190785 0.0190738 0.0191838 0.0191421 0.0187696 0.0179612 0.0157462 0.0119544 0.0192519 0.032953 0.0386762 0.036204 0.0290949 0.0212631 0.0120116 0.00604033 0.00837433 0.0200113 0.0283458 0.0245024 0.0211997 0.0205833 0.0222974 0.0185259 0.017408 0.02191 0.0208661 0.0196235 0.0192426 0.0191175 0.0190605 0.0191174 0.0191567 0.0192153 0.0195824 0.0198887 0.0196817 0.0199499 0.0179902 0.0222136 0.0315996 0.0360421 0.035608 0.0300503 0.0243843 0.0188889 0.0124772 0.00452763 0.00236089 0.00325019 0.014629 0.0224678 0.0178366 0.0157377 0.0102935 0.00364637 0.00879084 0.0110132 0.00801396 0.0133473 0.0166168 0.0180877 0.0186838 0.0190435 0.01923 0.0194483 0.0202035 0.020792 0.0211792 0.0219108 0.0219466 0.0277831 0.0311061 0.0281588 0.0268871 0.0242183 0.0216036 0.0187458 0.0160258 0.0126318 0.0115041 0.00857636 0.00938588 0.0155825 0.0160501 0.0132972 0.00957443 0.00451907 0.0113168 0.0191196 0.0190194 0.0199979 0.0194661 0.0194881 0.0193105 0.0193849 0.0195055 0.0198121 0.0205575 0.0212903 0.0222964 0.0232871 0.0275662 0.0309608 0.0274176 0.0242273 0.023275 0.0219518 0.0205929 0.0188656 0.0177097 0.0164782 0.0162778 0.0145273 0.00823967 0.00954984 0.0151279 0.0150135 0.0156954 0.0177681 0.0182546 0.0190695 0.0209864 0.0205706 0.0197268 0.0195663 0.0193992 0.0194876 0.0196504 0.0200197 0.0210237 0.0220615 0.0238921 0.0257599 0.0327639 0.0371221 0.0313539 0.0263374 0.0242416 0.0227257 0.0210969 0.0192836 0.0183231 0.0174701 0.017139 0.0152905 0.00780984 0.00818322 0.0152321 0.0174548 0.0199092 0.0253225 0.0232252 0.0195658 0.0213653 0.0207064 0.020147 0.0197897 0.0195695 0.019613 0.0198132 0.0202651 0.0206507 0.0214804 0.0223821 0.0242102 0.025063 0.0330704 0.0374969 0.0309957 0.0273657 0.0248296 0.0222166 0.0196998 0.0181947 0.0164297 0.0151329 0.0111554 0.00919063 0.0151067 0.0192103 0.0202807 0.021662 0.0251818 0.024339 0.0220881 0.0223271 0.0211015 0.0203942 0.019931 0.0196868 0.0196739 0.0198057 0.0201371 0.0205165 0.0212353 0.0221002 0.0237662 0.0240218 0.0291917 0.0396155 0.0404682 0.0361733 0.0316516 0.0251765 0.0194988 0.0153981 0.0103782 0.00644771 0.00449332 0.0137103 0.0223502 0.0213974 0.0220169 0.0226426 0.024657 0.0241001 0.0227697 0.0223399 0.0212275 0.0205676 0.0200915 0.0198298 0.0197735 0.0198587 0.0201066 0.0200246 0.0201056 0.0205015 0.0202886 0.0202703 0.0148253 0.0192585 0.0303469 0.0340323 0.0343175 0.0271179 0.0183054 0.0119632 0.00849799 0.00683617 0.0170187 0.0279954 0.0260572 0.0238576 0.0228964 0.0232078 0.0242825 0.0235972 0.0230612 0.0228062 0.0217371 0.0210126 0.0204626 0.0201145 0.0199544 0.0199091 0.0199178 0.0197615 0.0194136 0.0191568 0.0181712 0.0164168 0.00902439 0.00202298 0.00526558 0.0114086 0.0180028 0.0205551 0.0190004 0.0191803 0.0242808 0.0322342 0.0380982 0.0355688 0.0280755 0.0250775 0.0232216 0.0232526 0.0241997 0.0232691 0.0233187 0.0233598 0.0222629 0.0214566 0.0209099 0.020505 0.0202693 0.020104 0.0199308 0.0198306 0.0193251 0.0189297 0.0181827 0.0172844 0.0138277 0.0068493 0.00355449 0.00375317 0.00632966 0.0145658 0.0241719 0.0307534 0.0356839 0.0383402 0.0359822 0.0301558 0.0252953 0.0239301 0.0218274 0.0222294 0.0238759 0.0224786 0.0237777 0.0250855 0.0233828 0.0219895 0.0213929 0.0209102 0.0206416 0.0203987 0.0201279 0.0200866 0.019483 0.0189296 0.018195 0.0177284 0.016547 0.014226 0.0129097 0.0113939 0.0108273 0.0155365 0.0229572 0.0276398 0.0295619 0.0290076 0.0274131 0.0255467 0.0238222 0.0241241 0.0195271 0.0190746 0.0237012 0.0229002 0.0240361 0.0261879 0.024549 0.0223614 0.0218061 0.0213682 0.0211264 0.0208314 0.0204852 0.0204476 0.0199296 0.0194227 0.0188166 0.0184641 0.0181247 0.0173126 0.0169103 0.0163516 0.0160758 0.0177275 0.0204941 0.0223712 0.0234893 0.0237202 0.023558 0.0231557 0.0225499 0.020976 0.0153417 0.0142958 0.0168115 0.0172681 0.0173672 0.0222586 0.0247151 0.0217866 0.0215604 0.021287 0.0212496 0.0210687 0.0207943 0.0208575 0.0203915 0.0199351 0.0194109 0.0190779 0.0189002 0.018721 0.0187835 0.0185063 0.0181797 0.0186374 0.0196729 0.0203434 0.0208815 0.0211727 0.0219363 0.0224602 0.0242373 0.0239092 0.0293304 0.0300798 0.0230005 0.0219466 0.0178689 0.0166648 0.0189819 0.0203539 0.0210958 0.0215004 0.0215985 0.0214826 0.0212018 0.0210655 0.0207337 0.0204004 0.0200123 0.0197126 0.019515 0.01935 0.0193474 0.0192235 0.0190763 0.0191505 0.019469 0.0197149 0.0201309 0.0207191 0.0218046 0.0235748 0.0267314 0.0324145 0.0449428 0.0412737 0.0270178 0.0213427 0.0158664 0.00653554 0.00705691 0.0162675 0.0186337 0.0206926 0.0211581 0.0214076 0.021276 0.0213065 0.0210104 0.0207345 0.0204376 0.0201924 0.0200009 0.0198356 0.0197614 0.019603 0.0194288 0.0193264 0.0193436 0.0193172 0.019424 0.019595 0.020216 0.0208976 0.0229422 0.0244722 0.0318737 0.0321546 0.0234487 0.0182407 0.0140491 0.00770693 0.00908364 0.0176072 0.0196766 0.0213355 0.0216432 0.0217315 0.0215428 0.0213476 0.0211102 0.0208998 0.0206841 0.0204923 0.0203177 0.020141 0.0200012 0.0198163 0.0196275 0.0194399 0.0192984 0.0191225 0.0189884 0.018862 0.0187457 0.0185585 0.0178585 0.0159917 0.0115176 0.0137805 0.0178901 0.016885 0.0172649 0.0230371 0.0256482 0.0230342 0.0227243 0.0222956 0.022048 0.0218219 0.021576 0.0213626 0.0211509 0.0209719 0.0208008 0.0206451 0.0204931 0.0203262 0.0201632 0.0199555 0.0197342 0.0194918 0.0192586 0.0189883 0.0187107 0.0184152 0.0180546 0.0177161 0.0168165 0.0159655 0.0112868 0.0116059 0.0184125 0.0234204 0.0271318 0.0299618 0.0287178 0.0245588 0.0235007 0.0226285 0.0222109 0.0218683 0.021595 0.0212414 0.0210858 0.0209528 0.0208247 0.0207 0.0205683 0.0204142 0.0202467 0.020039 0.0198123 0.0195549 0.0192879 0.018982 0.0186385 0.0182562 0.0177447 0.0172453 0.016353 0.0158152 0.0143013 0.0149665 0.0191846 0.0250148 0.0280914 0.0278387 0.0263592 0.0240071 0.0231962 0.0223693 0.0219635 0.0216436 0.0214211 0.0211266 0.0210131 0.0209137 0.0208163 0.0207151 0.0206015 0.020462 0.0203 0.0200989 0.0198737 0.0196177 0.0193467 0.019046 0.0187129 0.0183543 0.0178963 0.0174741 0.0167822 0.0164786 0.0158226 0.0166871 0.0192484 0.0226073 0.0245177 0.0246485 0.024222 0.0230181 0.0225267 0.0219575 0.0216644 0.021425 0.0212599 0.0209731 0.0209128 0.0208553 0.0207925 0.0207176 0.0206239 0.0205005 0.0203479 0.0201576 0.0199401 0.019694 0.0194326 0.0191502 0.0188473 0.0185316 0.0181539 0.0178153 0.0173355 0.0171324 0.0169126 0.0176301 0.0190886 0.0210421 0.0223239 0.0225977 0.0225878 0.0220279 0.02177 0.0214353 0.0212671 0.0211306 0.0210429 0.0208477 0.0208292 0.0208071 0.0207762 0.0207274 0.020655 0.0205484 0.0204061 0.0202251 0.0200123 0.0197735 0.0195199 0.0192554 0.0189887 0.018729 0.0184548 0.0182327 0.0179534 0.0178715 0.0178011 0.0182834 0.0191434 0.0202282 0.0210334 0.0213425 0.0214837 0.0212698 0.0211796 0.0210258 0.0209564 0.0208998 0.0208697 0.0207264 0.0207495 0.0207643 0.0207673 0.0207467 0.0206971 0.020607 0.0204735 0.0202986 0.0200875 0.019854 0.0196046 0.019351 0.0191076 0.0188836 0.0186839 0.0185443 0.0184103 0.0184147 0.0184583 0.0187985 0.0193159 0.0199533 0.0204537 0.0206815 0.0208115 0.0207447 0.0207299 0.0206814 0.0206778 0.0206831 0.0207033 0.0206208 0.0206781 0.0207247 0.0207586 0.0207638 0.0207367 0.0206627 0.0205386 0.0203719 0.0201633 0.0199352 0.0196842 0.0194324 0.0191994 0.0189955 0.018851 0.0187743 0.0187463 0.018815 0.0189246 0.019176 0.0195025 0.0198595 0.0201372 0.0202858 0.0203784 0.0203822 0.0204062 0.0204216 0.0204597 0.0205069 0.0205632 
        </DataArray>
        <DataArray Name="vy" NumberOfComponents="1" type="Float32" format="ascii">
0.010911 0.0108481 0.0108355 0.010871 0.0109726 0.0111157 0.0113178 0.0115171 0.0117267 0.011896 0.0120382 0.0121398 0.0121588 0.0121318 0.0120244 0.0118895 0.0117865 0.0117187 0.0117923 0.0118766 0.0121374 0.0122334 0.0124191 0.0122967 0.0122466 0.0120134 0.0118513 0.0116382 0.0114634 0.0112896 0.0111395 0.0110096 0.0108133 0.0107596 0.0107661 0.0108281 0.0109695 0.0111567 0.0114196 0.0116644 0.0119158 0.0120841 0.0122351 0.0123494 0.012366 0.0123394 0.0121755 0.0119514 0.0117644 0.0116243 0.0116484 0.0117082 0.011969 0.0120876 0.0123401 0.0122493 0.0122216 0.0119864 0.0118111 0.0115772 0.0113861 0.0111987 0.0110415 0.0109087 0.0107074 0.0106673 0.0106972 0.0107811 0.0109498 0.0111509 0.0114571 0.0117108 0.011998 0.0121844 0.0124004 0.0125696 0.0125917 0.0125533 0.012314 0.0119832 0.0116989 0.0114828 0.0114713 0.0115266 0.0118491 0.0120239 0.0124098 0.0123163 0.0123012 0.012019 0.0118097 0.0115325 0.0113133 0.0111034 0.0109346 0.0107975 0.010611 0.0106053 0.0106739 0.0107798 0.0109547 0.0111582 0.0115085 0.0118129 0.0121347 0.0121914 0.0123691 0.0125655 0.0126471 0.0127729 0.0125041 0.0120033 0.0116103 0.0113193 0.0112985 0.0113839 0.0118161 0.0120779 0.0126677 0.0125096 0.0124431 0.012052 0.0117711 0.0114362 0.0111898 0.010967 0.0108004 0.0106758 0.0105746 0.0106247 0.0107362 0.0108217 0.0109232 0.0110242 0.0113835 0.011606 0.011869 0.0118669 0.0121848 0.0125433 0.0127172 0.0129969 0.0127533 0.0120913 0.011526 0.0111282 0.0110885 0.0112418 0.0118578 0.0123015 0.0132504 0.0129481 0.0127382 0.0121716 0.011773 0.0113655 0.0110826 0.0108485 0.0106897 0.0105926 0.0105939 0.0107224 0.0108621 0.0108541 0.0107875 0.0108729 0.0113995 0.012044 0.012316 0.0112913 0.010981 0.0112108 0.0118502 0.0134862 0.0137184 0.0125314 0.0116028 0.0109271 0.0108193 0.0111222 0.0119608 0.0127251 0.0142128 0.0136196 0.0130661 0.0122516 0.0116541 0.0111802 0.0108791 0.0106696 0.0105552 0.0105254 0.010742 0.0109703 0.0111216 0.0109767 0.0108034 0.0111471 0.0122632 0.0126354 0.0115433 0.00912154 0.00814683 0.00841274 0.00982141 0.0133755 0.0154888 0.0145192 0.0127328 0.0111442 0.0104904 0.0108792 0.012027 0.0134739 0.016031 0.0149356 0.0134775 0.0123665 0.0114956 0.0109938 0.0106911 0.0105362 0.0104873 0.0105556 0.0109064 0.0112039 0.0113373 0.0110668 0.0111894 0.0127938 0.0148593 0.0172459 0.0150767 0.00566299 -0.000473149 -0.00215554 0.00161195 0.0135934 0.020666 0.0188372 0.0159219 0.0123629 0.0102751 0.0105313 0.0116435 0.0144234 0.0180956 0.016022 0.0138832 0.0127472 0.0114063 0.0107909 0.0104601 0.0103695 0.010407 0.0105914 0.0111543 0.0116012 0.0119197 0.0122493 0.0141937 0.0192563 0.0235147 0.0207883 0.00800828 -0.00426617 -0.00931071 -0.0111891 -0.00897117 0.00531159 0.0225554 0.0277912 0.0239306 0.0167 0.0111617 0.0104041 0.0113824 0.0160193 0.0217587 0.0184695 0.0128274 0.0123568 0.0110557 0.0104922 0.0102166 0.0102406 0.0103808 0.010697 0.0112911 0.0118716 0.0126444 0.0139144 0.0187098 0.0232673 0.0173463 0.0111247 -0.000186734 -0.0050063 -0.00400347 -0.00369226 -0.00445619 0.00164917 0.0144849 0.0209336 0.0287045 0.0229252 0.0134529 0.0101105 0.010902 0.0191889 0.0198957 0.0152804 0.0140501 0.0149272 0.0122782 0.0108767 0.0102909 0.0102195 0.0103647 0.0107335 0.011262 0.0120257 0.0131257 0.01534 0.0197242 0.0167135 0.00336407 0.0029688 0.00407185 0.00408169 0.00463521 0.00524736 0.00586024 0.00869464 0.010222 0.00852695 0.0185509 0.024135 0.0152567 0.0110547 0.013968 0.0216164 0.0184372 0.0162797 0.0141889 0.0119311 0.0106299 0.0101567 0.00996307 0.010031 0.0102461 0.0106594 0.0108552 0.011648 0.012657 0.0152746 0.0170324 0.00910202 0.00328891 0.00562711 0.00652272 0.00699944 0.00760634 0.00854289 0.00987904 0.0121835 0.0137353 0.00967545 0.00859413 0.0214609 0.0183404 0.0164373 0.0218881 0.0211011 0.0106165 0.0157862 0.012257 0.00820258 0.0088251 0.00939886 0.00963123 0.00980498 0.0100126 0.0103614 0.0103524 0.0111261 0.0121967 0.0144941 0.0146299 0.00639664 0.00428083 0.00665953 0.00792211 0.00903374 0.00980118 0.0106692 0.0117877 0.0133838 0.0142717 0.011584 0.0102251 0.0175949 0.0183557 0.0184568 0.0233856 0.020242 0.0038865 0.0108469 0.0121314 0.0102845 0.010081 0.00989066 0.009804 0.00974655 0.00979185 0.00998183 0.00950477 0.00983852 0.0104053 0.0100741 0.0083736 0.00951474 0.0106322 0.00976327 0.00909964 0.00992147 0.0108321 0.0115492 0.0122724 0.0136374 0.0155833 0.0172258 0.0151443 0.0130466 0.0132619 0.0154978 0.0190485 0.0182296 0.00902675 0.0119061 0.0112417 0.0102089 0.0102226 0.0100092 0.00982057 0.00961742 0.00947966 0.00942476 0.00863965 0.00857253 0.00862227 0.00679105 0.00309719 0.00728904 0.0145843 0.0135273 0.0111067 0.0120803 0.0130958 0.0134095 0.0135793 0.0145571 0.0165642 0.0202657 0.0184983 0.00861398 0.00969968 0.013775 0.0161324 0.0160343 0.0113048 0.0119589 0.0115534 0.0111734 0.0108725 0.0103689 0.00991526 0.00950232 0.00915757 0.00885593 0.00806944 0.007882 0.00751879 0.00639665 -6.97847e-05 -0.00351049 0.0137646 0.0204022 0.0154724 0.015264 0.0160042 0.0155654 0.0154764 0.0165836 0.0208566 0.0236525 0.0108813 0.00293742 0.00855611 0.0127468 0.0143492 0.0149276 0.0128097 0.0129557 0.0125237 0.0120883 0.0114864 0.0107651 0.0100901 0.00950268 0.00898564 0.00851993 0.00759312 0.00708959 0.00635527 0.0049811 -0.00136084 -0.00845239 0.0026451 0.0170175 0.0186536 0.0231232 0.0251569 0.0232556 0.0229105 0.0240753 0.0220108 0.0131317 -0.00012088 0.00184523 0.0092534 0.0127097 0.0135052 0.0144071 0.0136 0.0134978 0.0132977 0.0128676 0.0120084 0.0110943 0.0102185 0.00948614 0.00884184 0.00824285 0.00780723 0.00735243 0.00708967 0.00661149 0.00443767 -0.00201141 -0.00221635 0.00688761 0.0116544 0.0224317 0.0320735 0.0305332 0.025024 0.0204962 0.012778 0.00304204 0.00194909 0.00743869 0.0116702 0.0134194 0.0128605 0.0144127 0.0142008 0.0136069 0.013966 0.0138866 0.0127869 0.0116977 0.0106007 0.00972407 0.00900245 0.00838927 0.0081061 0.00772149 0.00761882 0.00777019 0.00785782 0.00617429 0.00633425 0.00698272 0.00652743 0.0140271 0.0241174 0.0241683 0.0181007 0.0120624 0.00883096 0.00887447 0.0096926 0.0123502 0.0138664 0.0150389 0.012447 0.0144123 0.01429 0.0133295 0.0142344 0.0147043 0.0132855 0.0120153 0.0108053 0.00987304 0.0091535 0.008591 0.00860167 0.00828225 0.0082087 0.00831934 0.00880758 0.0084894 0.00845323 0.00915666 0.00876175 0.0112933 0.0146605 0.0150156 0.0135718 0.0122932 0.0115627 0.0116311 0.0125736 0.0137798 0.014686 0.0149153 0.0105296 0.0139117 0.0142862 0.0117352 0.0146392 0.0172026 0.0148029 0.0128803 0.0113805 0.0102954 0.00953197 0.00899097 0.009063 0.00886828 0.00885668 0.00894384 0.00943827 0.00961659 0.00991989 0.00978433 0.00909402 0.00992491 0.0115872 0.0118265 0.011274 0.0110299 0.0113577 0.0123638 0.0133404 0.0141595 0.0182024 0.0213599 0.00822875 0.0112879 0.0137 0.00934939 0.0126788 0.0183701 0.0158516 0.0129472 0.0113894 0.0103637 0.00973232 0.00931095 0.00948857 0.00935412 0.00934125 0.00933268 0.00957131 0.00967688 0.00985507 0.00992445 0.0096467 0.0098483 0.0103346 0.0104936 0.0105344 0.0108489 0.0113079 0.0122299 0.0134221 0.0158639 0.0213222 0.0212674 0.00771017 0.0109273 0.0137998 0.00781747 0.00853319 0.0177559 0.0177439 0.0134305 0.0117215 0.010576 0.0100313 0.00966472 0.0098285 0.00977267 0.00979408 0.00978159 0.00990787 0.00993014 0.010019 0.00996455 0.00977022 0.00980252 0.01001 0.0100668 0.0100526 0.01021 0.0104184 0.0109389 0.0113222 0.0122237 0.0136581 0.0154355 0.0157875 0.0194326 0.0191227 0.012922 0.0111907 0.0145119 0.0144236 0.0119057 0.0109473 0.0103559 0.0100883 0.00990301 0.0100598 0.010056 0.0100801 0.0100569 0.0100978 0.0100632 0.0100737 0.0100282 0.00993738 0.00991496 0.00995297 0.00994482 0.00987476 0.00983613 0.00964912 0.00941444 0.00861033 0.00698575 0.00392918 0.0101279 0.0264535 0.0296956 0.0258087 0.0228897 0.0189273 0.00681335 0.0059897 0.00851696 0.00925611 0.00979309 0.00996754 0.0100345 0.0103332 0.0103295 0.0103399 0.0103144 0.0103226 0.0102727 0.0102487 0.0101822 0.0101083 0.0100749 0.010075 0.0100541 0.00997239 0.00989656 0.00967972 0.00951237 0.00884426 0.00830023 0.00553637 0.00747856 0.0254269 0.03249 0.0286324 0.0225336 0.0154997 0.0044547 0.00495569 0.00813513 0.00923451 0.00993191 0.0101956 0.0103012 0.0105431 0.0105267 0.0105166 0.0104847 0.0104738 0.0104289 0.0104025 0.0103558 0.0103161 0.0102938 0.0102841 0.0102645 0.0101907 0.0100962 0.00989663 0.00971756 0.00944411 0.00950674 0.00983744 0.0121041 0.0202202 0.0272446 0.0258862 0.0177436 0.0107895 0.0072953 0.00814911 0.0091937 0.00980341 0.0102443 0.0104473 0.0105278 0.0107574 0.01071 0.0106753 0.0106371 0.0106196 0.0105881 0.0105726 0.0105487 0.0105346 0.0105357 0.0105439 0.0105503 0.0105168 0.0104639 0.0103405 0.010226 0.0100988 0.0101997 0.0109552 0.0124522 0.0176434 0.0206537 0.0203218 0.0159069 0.0130129 0.0101307 0.0100896 0.0102493 0.0105202 0.0107138 0.0107912 0.0107921 0.0108896 0.0108286 0.0107838 0.0107473 0.0107335 0.0107214 0.0107268 0.0107339 0.0107512 0.0107788 0.0108079 0.0108376 0.0108375 0.0108236 0.0107718 0.0107306 0.0107544 0.0109293 0.0116935 0.0128822 0.0155462 0.0169727 0.0171433 0.0145726 0.0130401 0.0113336 0.0110794 0.0109026 0.0109656 0.0109985 0.0109938 0.0109494 0.0109917 0.0109164 0.0108652 0.0108337 0.0108302 0.0108402 0.0108715 0.0109104 0.0109591 0.0110152 0.0110681 0.0111204 0.0111469 0.0111617 0.0111509 0.0111427 0.0111982 0.0113205 0.0118574 0.0125155 0.0141232 0.0147711 0.0150341 0.0137798 0.0130645 0.0119462 0.0116605 0.0114008 0.0113322 0.0112528 0.0111719 0.0110799 0.0110267 0.0109529 0.0109076 0.010889 0.010904 0.0109411 0.0110041 0.0110777 0.0111593 0.0112419 0.0113143 0.0113808 0.0114185 0.0114444 0.0114483 0.0114546 0.0115207 0.01163 0.0120096 0.0124184 0.0132965 0.0136166 0.0138433 0.0131188 0.0127319 0.0120465 0.0118107 0.0115651 0.0114494 0.0113316 0.0112248 0.0111198 0.0110267 0.0109537 0.0109158 0.010912 0.0109503 0.011018 0.0111196 0.0112319 0.0113521 0.0114646 0.0115594 0.0116378 0.0116754 0.0116929 0.011679 0.0116605 0.0116869 0.0117403 0.01198 0.0122075 0.01273 0.0128919 0.0130752 0.0127033 0.0125151 0.0120908 0.0118977 0.0116724 0.0115247 0.011377 0.0112457 0.011126 0.0109842 0.0109175 0.0108925 0.0109084 0.0109769 0.0110821 0.0112308 0.0113864 0.0115475 0.0116848 0.0117963 0.0118819 0.0119117 0.0119129 0.0118634 0.0117998 0.0117726 0.0117734 0.0119199 0.0120594 0.0123922 0.0124962 0.0126576 0.0124412 0.0123329 0.0120379 0.0118673 0.0116579 0.0114993 0.011342 0.0112037 0.0110814 
        </DataArray>
        <DataArray Name="vz" NumberOfComponents="1" type="Float32" format="ascii">
0 0 0 0 0 0 0 0 0 0 0 0 0 0 0 0 0 0 0 0 0 0 0 0 0 0 0 0 0 0 0 0 0 0 0 0 0 0 0 0 0 0 0 0 0 0 0 0 0 0 0 0 0 0 0 0 0 0 0 0 0 0 0 0 0 0 0 0 0 0 0 0 0 0 0 0 0 0 0 0 0 0 0 0 0 0 0 0 0 0 0 0 0 0 0 0 0 0 0 0 0 0 0 0 0 0 0 0 0 0 0 0 0 0 0 0 0 0 0 0 0 0 0 0 0 0 0 0 0 0 0 0 0 0 0 0 0 0 0 0 0 0 0 0 0 0 0 0 0 0 0 0 0 0 0 0 0 0 0 0 0 0 0 0 0 0 0 0 0 0 0 0 0 0 0 0 0 0 0 0 0 0 0 0 0 0 0 0 0 0 0 0 0 0 0 0 0 0 0 0 0 0 0 0 0 0 0 0 0 0 0 0 0 0 0 0 0 0 0 0 0 0 0 0 0 0 0 0 0 0 0 0 0 0 0 0 0 0 0 0 0 0 0 0 0 0 0 0 0 0 0 0 0 0 0 0 0 0 0 0 0 0 0 0 0 0 0 0 0 0 0 0 0 0 0 0 0 0 0 0 0 0 0 0 0 0 0 0 0 0 0 0 0 0 0 0 0 0 0 0 0 0 0 0 0 0 0 0 0 0 0 0 0 0 0 0 0 0 0 0 0 0 0 0 0 0 0 0 0 0 0 0 0 0 0 0 0 0 0 0 0 0 0 0 0 0 0 0 0 0 0 0 0 0 0 0 0 0 0 0 0 0 0 0 0 0 0 0 0 0 0 0 0 0 0 0 0 0 0 0 0 0 0 0 0 0 0 0 0 0 0 0 0 0 0 0 0 0 0 0 0 0 0 0 0 0 0 0 0 0 0 0 0 0 0 0 0 0 0 0 0 0 0 0 0 0 0 0 0 0 0 0 0 0 0 0 0 0 0 0 0 0 0 0 0 0 0 0 0 0 0 0 0 0 0 0 0 0 0 0 0 0 0 0 0 0 0 0 0 0 0 0 0 0 0 0 0 0 0 0 0 0 0 0 0 0 0 0 0 0 0 0 0 0 0 0 0 0 0 0 0 0 0 0 0 0 0 0 0 0 0 0 0 0 0 0 0 0 0 0 0 0 0 0 0 0 0 0 0 0 0 0 0 0 0 0 0 0 0 0 0 0 0 0 0 0 0 0 0 0 0 0 0 0 0 0 0 0 0 0 0 0 0 0 0 0 0 0 0 0 0 0 0 0 0 0 0 0 0 0 0 0 0 0 0 0 0 0 0 0 0 0 0 0 0 0 0 0 0 0 0 0 0 0 0 0 0 0 0 0 0 0 0 0 0 0 0 0 0 0 0 0 0 0 0 0 0 0 0 0 0 0 0 0 0 0 0 0 0 0 0 0 0 0 0 0 0 0 0 0 0 0 0 0 0 0 0 0 0 0 0 0 0 0 0 0 0 0 0 0 0 0 0 0 0 0 0 0 0 0 0 0 0 0 0 0 0 0 0 0 0 0 0 0 0 0 0 0 0 0 0 0 0 0 0 0 0 0 0 0 0 0 0 0 0 0 0 0 0 0 0 0 0 0 0 0 0 0 0 0 0 0 0 0 0 0 0 0 0 0 0 0 0 0 0 0 0 0 0 0 0 0 0 0 0 0 0 0 0 0 0 0 0 0 0 0 0 0 0 0 0 0 0 0 0 0 0 0 0 0 0 0 0 0 0 0 0 0 0 0 0 0 0 0 0 0 0 0 0 0 0 0 0 0 0 0 0 0 0 0 0 0 0 0 0 0 0 0 0 0 0 0 0 0 0 0 0 0 0 0 0 0 0 0 0 0 0 0 0 0 0 0 0 0 0 0 0 0 0 0 0 0 0 0 0 0 0 0 0 0 0 0 0 0 0 0 0 0 0 0 0 0 0 0 0 0 0 0 0 0 0 0 0 0 0 0 0 0 0 0 0 0 0 0 0 0 0 0 0 0 0 0 0 0 0 0 0 0 0 0 0 0 0 0 0 0 0 0 0 0 0 0 0 0 0 0 0 0 0 0 0 0 0 0 0 0 0 0 0 0 0 0 0 0 0 0 0 0 0 0 0 0 0 0 0 0 0 0 0 0 0 0 0 0 0 0 0 0 0 0 0 0 0 0 0 0 0 0 0 0 0 0 0 0 0 0 0 0 0 0 0 0 0 0 0 0 0 0 0 0 0 0 0 0 0 0 0 0 0 0 0 0 0 0 0 0 0 0 0 0 0 0 0 0 
        </DataArray>
        <DataArray Name="p" NumberOfComponents="1" type="Float32" format="ascii">