<?xml version="1.0"?>
<VTKFile type="StructuredGrid" version="0.1" byte_order="LittleEndian">
  <StructuredGrid WholeExtent="0 32 0 32 0 1">
    <Piece Extent="0 32 0 32 0 1">
      <PointData>
      </PointData>
      <CellData>
        <DataArray Name="vx" NumberOfComponents="1" type="Float32" format="ascii">
0.0193998 0.0191638 0.0189216 0.0186784 0.0184507 0.0182686 0.0181467 0.0181418 0.0182649 0.0185245 0.0189209 0.0193881 0.0198695 0.0203282 0.0207176 0.021027 0.021234 0.0213569 0.0213833 0.0213867 0.0213311 0.0212845 0.0212639 0.0211759 0.0210766 0.0208951 0.0206955 0.0204809 0.0202637 0.0200547 0.0198407 0.0196254 0.0192357 0.0189751 0.0186863 0.0183702 0.0180529 0.0177855 0.0175868 0.0175619 0.0177294 0.018102 0.0186878 0.019369 0.0200538 0.0206952 0.0212226 0.0216243 0.0218823 0.022012 0.0220333 0.0220013 0.0218892 0.0217494 0.0215727 0.0213061 0.0210369 0.0207442 0.0204891 0.0202576 0.0200504 0.0198598 0.0196665 0.0194623 0.0190557 0.0187447 0.0183726 0.0179347 0.0174749 0.0170773 0.0167512 0.0166909 0.0169093 0.0174372 0.0183372 0.0193792 0.0203967 0.0213215 0.022034 0.0225386 0.0228198 0.0229032 0.022858 0.0227459 0.0225307 0.0222815 0.0219546 0.0214964 0.0210471 0.0206204 0.0203001 0.0200429 0.0198426 0.0196696 0.0194953 0.0192965 0.018883 0.0184889 0.0179844 0.0173619 0.0166841 0.0160841 0.0155246 0.015366 0.0156406 0.0164181 0.0178593 0.0195172 0.0211032 0.022482 0.0234513 0.0240173 0.0242142 0.0241409 0.0239268 0.0236758 0.0232953 0.0229194 0.0224196 0.0216893 0.021004 0.0204166 0.0200495 0.0197929 0.0196281 0.0194931 0.0193482 0.0191531 0.0187146 0.0182209 0.0175602 0.0167127 0.0157553 0.0148496 0.0138049 0.0133403 0.013498 0.0144994 0.0169125 0.019786 0.0224689 0.0246759 0.02598 0.0264787 0.0263325 0.0258123 0.0252529 0.0247851 0.0241702 0.0236582 0.0230044 0.0219548 0.0209591 0.0201601 0.0197545 0.0195014 0.0193876 0.0193045 0.019201 0.0190157 0.0186568 0.0180633 0.0172323 0.0161092 0.0147125 0.0131604 0.0109539 0.00958198 0.00934062 0.0107783 0.0150015 0.0201015 0.0249126 0.0287489 0.0307738 0.0308966 0.0296794 0.0280861 0.0267628 0.0259538 0.0250467 0.0245508 0.0238404 0.0222943 0.0207919 0.019679 0.019296 0.0191207 0.0191366 0.0191594 0.0191331 0.018978 0.0187341 0.0181048 0.0171677 0.0157457 0.0136625 0.0108027 0.00610127 0.00305579 0.00224465 0.0043232 0.0115613 0.0200714 0.0279739 0.0347056 0.0383727 0.0383411 0.0353268 0.0313539 0.0284749 0.0270104 0.0255695 0.0250936 0.0247162 0.0228475 0.0206847 0.0192186 0.0189301 0.0187939 0.0189236 0.0190466 0.0191119 0.0190215 0.0191543 0.0185892 0.0176235 0.015821 0.0126211 0.00740458 -0.00112504 -0.0054668 -0.00418148 0.00135873 0.0111628 0.0202134 0.0291181 0.0384068 0.0462259 0.0479904 0.0427752 0.0353852 0.0297872 0.0271398 0.0249483 0.0252436 0.0261761 0.0241447 0.0206795 0.0182609 0.0182243 0.0183146 0.0187104 0.0190392 0.0192736 0.0193204 0.0199224 0.0196556 0.0189586 0.0170338 0.0129494 0.00567583 -0.00592846 -0.00530294 0.0060903 0.0154771 0.0218853 0.0251643 0.0285135 0.0335785 0.0423319 0.0511886 0.0496805 0.0390293 0.0302468 0.0261637 0.0217521 0.0216861 0.024505 0.0234334 0.0196389 0.0171359 0.018071 0.0182902 0.0187696 0.0191965 0.0195685 0.0198194 0.0211557 0.0214517 0.0214775 0.0202815 0.0174543 0.0116584 0.00622355 0.0168746 0.0316276 0.0355699 0.031727 0.0257525 0.0202665 0.0167987 0.016598 0.0282713 0.0408902 0.0354172 0.026081 0.020302 0.0129835 0.00912919 0.00802958 0.00547572 0.00758966 0.0120452 0.0153283 0.0172579 0.0184539 0.0193367 0.0200246 0.0206178 0.0227275 0.0240467 0.025789 0.0272574 0.0300397 0.0319009 0.0445134 0.0541474 0.0494978 0.0436861 0.0334191 0.0238647 0.0149591 0.00563417 -0.000667629 -0.00368618 0.0112644 0.0212791 0.017143 0.01496 0.012578 0.0105168 0.00746294 0.00652709 0.0125355 0.0176058 0.0170717 0.0185161 0.0190551 0.0198624 0.0206291 0.0215707 0.0241014 0.0263715 0.0295009 0.0340304 0.0414818 0.0527589 0.0654127 0.0625408 0.0503106 0.0406779 0.0309707 0.0223782 0.0141692 0.00523248 -0.00322903 -0.0126709 -0.0116493 0.00060944 0.00669131 0.0103629 0.0156757 0.0172507 0.0117009 0.00796682 0.011735 0.0164675 0.0171733 0.0185651 0.0193026 0.0202106 0.0211725 0.0224397 0.0248833 0.0277885 0.0321752 0.0388664 0.0508248 0.0676513 0.0728112 0.0608467 0.0482958 0.0383319 0.0292576 0.0211996 0.0134349 0.00521922 -0.00397284 -0.014095 -0.0256954 -0.0193597 -0.00429943 0.00355309 0.0107692 0.0149494 0.0145507 0.0162939 0.0186395 0.0185412 0.019244 0.0194281 0.0198275 0.0204876 0.0214535 0.0228675 0.0246166 0.0273556 0.0312202 0.0374422 0.0469327 0.0615272 0.0680073 0.0579713 0.0462016 0.0366295 0.0281023 0.0204829 0.013006 0.00508231 -0.00430452 -0.0148048 -0.0287201 -0.0241247 -0.00703445 0.00158543 0.00798552 0.00944336 0.0138843 0.0213163 0.0217453 0.0202362 0.019971 0.0197526 0.0199958 0.0205359 0.0214255 0.0227499 0.0234191 0.0254528 0.0277717 0.031567 0.0352981 0.0429941 0.0558872 0.0549443 0.0452037 0.0362928 0.0276177 0.0198454 0.0119141 0.00327312 -0.00638832 -0.0156375 -0.0243873 -0.0167448 -0.00233557 0.00523561 0.0109923 0.0130126 0.0168249 0.0216763 0.0215537 0.0205744 0.0201423 0.0197947 0.0199092 0.0202914 0.0209884 0.0220429 0.0218872 0.022831 0.0238542 0.0245082 0.0250224 0.024065 0.0369574 0.0472107 0.0433814 0.0369573 0.0280788 0.0197493 0.0110465 0.00130819 -0.00776673 -0.0125793 -0.00431431 0.00684417 0.00991513 0.0135889 0.0156833 0.0174289 0.0194805 0.0214767 0.0213388 0.0205916 0.0201262 0.0197537 0.0197814 0.020003 0.0204604 0.0210929 0.0204094 0.0205244 0.0203515 0.0192269 0.016633 0.0108104 0.00920915 0.021142 0.032263 0.0318404 0.0260297 0.0192614 0.0108038 0.00156258 -0.00388248 0.00135768 0.0171778 0.0228576 0.01917 0.0191871 0.0191167 0.0198438 0.0210617 0.0219787 0.0216369 0.0207376 0.0201849 0.0197209 0.0196508 0.0197079 0.0199238 0.0201763 0.0192051 0.0186426 0.0176448 0.0156072 0.0117558 0.00491116 -0.00338946 -0.00141295 0.0104391 0.0175124 0.0193464 0.0194339 0.0180615 0.0176147 0.0244353 0.0369707 0.0406548 0.0341052 0.0273477 0.0245163 0.0226329 0.0221371 0.022563 0.0226744 0.0222089 0.0210433 0.0203531 0.0197717 0.0196311 0.0195434 0.0195453 0.0194503 0.018608 0.0177339 0.0164349 0.0143523 0.0109187 0.00519687 -0.00273933 -0.0059026 -0.00313833 0.00459395 0.0127535 0.0197661 0.0272095 0.0366355 0.0465553 0.0502747 0.0454154 0.0362621 0.0295765 0.0265837 0.0236289 0.0228756 0.0235594 0.0235843 0.0230166 0.021094 0.0203742 0.0197133 0.0196522 0.0195228 0.0194171 0.0191187 0.0183971 0.0174172 0.0160908 0.0143471 0.0119251 0.00863694 0.00374523 0.000856863 -0.000102272 0.00426122 0.0121303 0.0198394 0.0288209 0.0385929 0.0443872 0.0431818 0.0385563 0.0332637 0.0293989 0.0283069 0.0259494 0.0244265 0.0226507 0.0210359 0.0212039 0.0200793 0.0199666 0.0194396 0.0195997 0.0195286 0.0194208 0.0190286 0.0186215 0.0176593 0.0164379 0.0149978 0.0132924 0.0114631 0.0090159 0.00770105 0.00718831 0.00937774 0.0142173 0.0197789 0.0260558 0.0320032 0.0351927 0.0349632 0.0330122 0.0306168 0.028876 0.0300686 0.03043 0.0242737 0.0202166 0.0189924 0.0136175 0.0133494 0.017403 0.0186177 0.0195904 0.0197792 0.0197188 0.0192896 0.0189205 0.0180688 0.0170313 0.0158917 0.0146709 0.0136331 0.0124637 0.012062 0.0120184 0.0133838 0.0162116 0.0195066 0.023257 0.0267993 0.0288542 0.0290625 0.0285488 0.0272786 0.0265413 0.025816 0.0251413 0.0221233 0.0178033 0.0144956 0.00862007 0.00893025 0.0144109 0.0172645 0.0191938 0.0197551 0.0198809 0.0195222 0.0194398 0.0186385 0.0177464 0.0168305 0.0159125 0.0152203 0.0146066 0.0145575 0.0147941 0.0157524 0.0174451 0.0194237 0.0216429 0.0237174 0.0251495 0.0255584 0.0257638 0.024503 0.0246192 0.0191952 0.0191415 0.0231744 0.0209212 0.0189172 0.0178204 0.0186862 0.0188691 0.0203627 0.0208891 0.0209599 0.0206541 0.0201178 0.0197769 0.0190717 0.0183375 0.0176247 0.0169443 0.0164572 0.0160873 0.0161127 0.0163617 0.0170412 0.0181238 0.0193615 0.0207251 0.0219911 0.0229231 0.0232194 0.0235285 0.0226292 0.0231292 0.0186096 0.019465 0.0241925 0.0226685 0.021833 0.0235591 0.0243417 0.0219894 0.0220727 0.0217878 0.0215088 0.0210182 0.0204332 0.0201001 0.0194426 0.018812 0.0182399 0.0177236 0.0173631 0.0171184 0.0171476 0.0173582 0.0178355 0.0185464 0.0193531 0.0202177 0.0210076 0.0216139 0.0219281 0.0222096 0.0223271 0.022889 0.0246486 0.0254432 0.0248893 0.0254287 0.0257067 0.0270834 0.0271908 0.0251525 0.0242102 0.0230719 0.0222958 0.021502 0.0207926 0.020212 0.0196356 0.019109 0.0186525 0.0182602 0.0179916 0.0178223 0.0178404 0.0179945 0.0183229 0.0187939 0.0193209 0.019859 0.0203218 0.020619 0.0207299 0.0206715 0.0206858 0.0204925 0.022412 0.0236965 0.0225367 0.0237421 0.024374 0.026086 0.0278136 0.026271 0.024842 0.0233755 0.0224097 0.021556 0.0208542 0.0202332 0.0197309 0.0192848 0.0189106 0.0186017 0.0183938 0.0182721 0.0182845 0.0184023 0.0186388 0.0189685 0.0193347 0.0196975 0.0199958 0.0201582 0.0201937 0.0200003 0.0198535 0.0191398 0.0191953 0.0181931 0.0183958 0.0213471 0.0238063 0.026882 0.0274748 0.025904 0.0244791 0.0231683 0.0222536 0.0214557 0.0208112 0.0201472 0.0197273 0.0193561 0.0190479 0.0187992 0.0186334 0.0185421 0.0185522 0.0186468 0.0188287 0.0190778 0.0193531 0.0196198 0.0198303 0.0199252 0.0199184 0.0196985 0.0195315 0.0189457 0.0189193 0.0181738 0.0184545 0.0209451 0.0233012 0.0254587 0.0254456 0.0244402 0.0234765 0.0225331 0.021812 0.0211653 0.0206304 0.0200191 0.0196697 0.0193582 0.0190986 0.0188907 0.0187521 0.0186797 0.0186905 0.0187753 0.0189323 0.0191468 0.0193868 0.0196243 0.0198204 0.0199295 0.0199571 0.019807 0.0196691 0.0192305 0.0191514 0.0188254 0.0192163 0.0208534 0.0222489 0.0234702 0.023542 0.0230722 0.0224967 0.0218704 0.0213419 0.0208439 0.0204158 0.0198703 0.019577 0.0193106 0.0190847 0.0189023 0.018779 0.0187161 0.0187282 0.0188116 0.0189639 0.019174 0.0194134 0.0196575 0.0198726 0.0200236 0.020107 0.0200579 0.0199965 0.0197417 0.0197016 0.0195793 0.0198304 0.0207149 0.0214864 0.022191 0.0222739 0.0220537 0.021707 0.021293 0.0209118 0.0205345 0.0201948 0.0197146 0.0194597 0.0192219 0.0190134 0.0188405 0.0187193 0.0186551 0.0186666 0.0187548 0.0189192 0.0191521 0.0194231 0.0197061 0.0199697 0.0201831 0.0203378 0.0203894 0.0204071 0.0202878 0.0202689 0.020211 0.0203532 0.0208036 0.0211731 0.0215169 0.0215338 0.0213873 0.0211433 0.0208477 0.0205595 0.0202644 0.0199873 0.0195601 0.0193241 0.0190952 0.0188829 0.0186974 0.0185591 0.018478 0.0184851 0.018587 0.018786 0.0190761 0.0194169 0.0197731 0.0201129 0.0204029 0.0206309 0.0207684 0.0208506 0.0208289 0.0208321 0.0207926 0.0208297 0.0209945 0.0210998 0.0211929 0.0211182 0.020965 0.0207566 0.0205189 0.0202833 0.0200391 0.0198012 
        </DataArray>
        <DataArray Name="vy" NumberOfComponents="1" type="Float32" format="ascii">
0.0123045 0.0121881 0.0120729 0.0119567 0.0118144 0.0116459 0.0114374 0.0111797 0.0109212 0.0106634 0.0104719 0.0103724 0.0103644 0.0104319 0.0105777 0.0107675 0.0110179 0.0113103 0.0116394 0.0120481 0.0124455 0.0129002 0.0132389 0.0134578 0.0135073 0.01342 0.0132797 0.0130939 0.0129158 0.0127365 0.0125785 0.0124327 0.0125345 0.0124362 0.0123314 0.0122181 0.0120496 0.0118263 0.0115257 0.0111204 0.010715 0.0102868 0.0099722 0.00982115 0.00982158 0.00994168 0.0101787 0.0104657 0.0108316 0.0112113 0.0116248 0.01207 0.0125316 0.0129809 0.0133799 0.0136259 0.0137184 0.0136474 0.0135067 0.0133142 0.0131242 0.0129412 0.0127844 0.0126489 0.0127874 0.0127391 0.0126758 0.0125903 0.0124025 0.0121049 0.011671 0.0110249 0.0103893 0.00969438 0.00920816 0.00900165 0.00903723 0.00926018 0.00965083 0.0101073 0.0106401 0.0111491 0.0116671 0.0121706 0.0127193 0.0131955 0.0137034 0.0139826 0.0140853 0.013964 0.0137694 0.0135302 0.0133091 0.0131184 0.0129704 0.0128631 0.0130847 0.0131241 0.0131408 0.0131161 0.0129186 0.0125392 0.0119426 0.0109414 0.00999133 0.00884262 0.00803904 0.007757 0.00787719 0.00829486 0.00895954 0.00967089 0.0104761 0.0111613 0.0118059 0.012378 0.01303 0.0135334 0.0141847 0.0145092 0.0146075 0.0143743 0.0140874 0.0137684 0.0134989 0.0132934 0.0131582 0.0130945 0.0134432 0.0136382 0.0137984 0.0138796 0.0136918 0.0132241 0.0124284 0.0108617 0.00938133 0.0074386 0.00613373 0.00575135 0.00607037 0.00691802 0.00811297 0.00936449 0.010529 0.0114199 0.0121481 0.0127493 0.0134977 0.0140141 0.0149594 0.0153696 0.0154175 0.0149164 0.0144249 0.0139541 0.0136122 0.0133977 0.0133033 0.0133281 0.0138775 0.0142883 0.0146586 0.0149195 0.0148402 0.0144462 0.0135825 0.0111548 0.00891179 0.00535002 0.00279526 0.00219768 0.00296468 0.00475318 0.00714128 0.00929504 0.0111657 0.0122282 0.0129064 0.0134447 0.0142684 0.0146801 0.0159376 0.0165077 0.0164275 0.0154778 0.0147328 0.0140922 0.0136848 0.0134754 0.0134432 0.0135888 0.014343 0.0150542 0.0157382 0.0163418 0.016663 0.0168258 0.0161287 0.0123559 0.00835699 0.00165683 -0.0030996 -0.00417343 -0.00257666 0.00111588 0.00592978 0.0105945 0.0133664 0.0142921 0.0142841 0.0143045 0.0148874 0.015067 0.0171593 0.0183335 0.0182633 0.0164483 0.015131 0.0141535 0.0136187 0.013417 0.0134846 0.0138077 0.0147943 0.0158776 0.0170637 0.0184312 0.0199858 0.0218761 0.0217942 0.0146131 0.00787327 -0.00433416 -0.0126814 -0.0141004 -0.0118818 -0.00574573 0.00345755 0.0122312 0.0181933 0.019068 0.0174344 0.0163784 0.0164969 0.0156397 0.0183218 0.0205741 0.0200551 0.0168065 0.0150397 0.0139165 0.0133649 0.013243 0.0134468 0.013972 0.0150483 0.0165507 0.0184552 0.0211705 0.025076 0.0300897 0.0292489 0.0153992 0.00185588 -0.0141731 -0.02205 -0.0223843 -0.0206978 -0.015865 -0.00405377 0.0147443 0.0260496 0.0271735 0.0224775 0.0187999 0.0165661 0.0136953 0.0171805 0.0236305 0.0250636 0.0192108 0.0155662 0.0138607 0.0130519 0.0129234 0.0132286 0.0139397 0.0149653 0.0169071 0.0197896 0.0245449 0.0317731 0.0404507 0.0339285 0.000849437 -0.0129246 -0.0199382 -0.0219344 -0.0204917 -0.0202558 -0.0192444 -0.0143939 0.00400527 0.030189 0.0384556 0.0305487 0.0250672 0.0213086 0.0138808 0.0179196 0.0258845 0.0258639 0.0165966 0.013365 0.0127337 0.0122439 0.0123288 0.0127668 0.0136202 0.0141691 0.0161568 0.0194827 0.0248612 0.0334779 0.0399241 0.0245587 -0.00942094 -0.015705 -0.0140582 -0.0124194 -0.0110358 -0.0114934 -0.0126158 -0.0146505 -0.00912864 0.0196402 0.0413174 0.0374268 0.0315946 0.0281138 0.0162712 0.0198052 0.022801 0.0193052 0.0130644 0.0114204 0.0112937 0.011269 0.011513 0.0120013 0.0128303 0.0125044 0.0140143 0.0166563 0.020893 0.0271438 0.0277046 0.0115349 -0.00378995 -0.00429262 -0.00363784 -0.00268841 -0.00211932 -0.00231475 -0.00360937 -0.00565908 -0.00837922 0.00486209 0.0339004 0.0366309 0.029476 0.0268624 0.0187731 0.0246303 0.0220202 0.0133995 0.0116033 0.0111096 0.0104513 0.0105353 0.0106564 0.0109843 0.0115422 0.0101789 0.0106774 0.0115888 0.0126983 0.0138579 0.0157266 0.0136001 0.00722124 0.00610913 0.00591627 0.00595333 0.00603986 0.00581077 0.00506253 0.00346966 0.000256303 0.0057138 0.0228959 0.0269806 0.0223193 0.0211306 0.0186308 0.02902 0.0220763 0.010517 0.00908211 0.0096788 0.00963368 0.00978493 0.00976598 0.00980023 0.00990136 0.00763686 0.00685711 0.00574041 0.00267922 -0.00110386 0.0057078 0.0182879 0.0204057 0.0175108 0.0153855 0.0140534 0.0136075 0.0134087 0.0135595 0.0134944 0.0125443 0.0106411 0.0125183 0.014587 0.0150799 0.0159924 0.0156559 0.0235241 0.0176442 0.0111554 0.0102683 0.00996599 0.00963482 0.00935169 0.00897464 0.00859103 0.00813696 0.0055365 0.00399088 0.00140692 -0.00321096 -0.010556 -0.00523823 0.0170848 0.0295215 0.0272447 0.0243448 0.0220729 0.0214099 0.0213383 0.0226027 0.0238272 0.0245665 0.0160395 -0.000273725 0.000793677 0.00701349 0.0116184 0.0135694 0.0166938 0.0145177 0.0118347 0.0109601 0.0103259 0.00969839 0.00906327 0.00835504 0.00758849 0.00668133 0.00427581 0.00251704 -0.000343328 -0.00483496 -0.0130635 -0.0146341 0.00476122 0.0328035 0.0359105 0.0332711 0.0302491 0.0293556 0.0296689 0.0315169 0.0322702 0.0295174 0.0128803 -0.0101303 -0.00652542 0.00226896 0.00824109 0.0109957 0.0138825 0.0131751 0.012267 0.0115461 0.010727 0.00979506 0.00884877 0.00787891 0.00686089 0.00571275 0.00377787 0.00205531 -0.000289592 -0.00403052 -0.0100465 -0.015434 -0.00648296 0.0230553 0.036239 0.0397285 0.0389803 0.0388047 0.0397592 0.0417426 0.0384093 0.020712 -0.00335427 -0.0147412 -0.00650157 0.00131828 0.00724997 0.00994492 0.0124411 0.0127173 0.0127692 0.0121463 0.0112309 0.0100294 0.00884096 0.00766325 0.0064973 0.00524035 0.00394791 0.00256645 0.000945961 -0.00128065 -0.00479001 -0.00863584 -0.00495047 0.00995341 0.0261791 0.0393261 0.0426199 0.0451135 0.0466504 0.0457033 0.0318085 0.00878814 -0.00838327 -0.0112126 -0.00333404 0.00268597 0.00761079 0.00926267 0.0119165 0.0125503 0.0135962 0.0128598 0.0117888 0.0102611 0.00887826 0.00758455 0.00640762 0.00522674 0.00457853 0.00361026 0.00274343 0.00187388 0.000826096 -0.000513284 0.000918944 0.00802008 0.0175563 0.0313444 0.0365614 0.0405606 0.0410135 0.0365633 0.019656 0.00527475 -0.0013197 -0.00125897 0.00274367 0.00590019 0.00951664 0.00968494 0.0119978 0.0127765 0.0146141 0.0138977 0.012658 0.0107314 0.00914138 0.00774842 0.006612 0.00557485 0.00533573 0.00473617 0.00433547 0.00418794 0.00438972 0.00473622 0.00634343 0.010345 0.0153101 0.0233301 0.0276794 0.0307612 0.0300571 0.0262226 0.0172102 0.00986472 0.00542887 0.00479903 0.00640154 0.00866628 0.0114817 0.00868947 0.0132076 0.0125675 0.0159942 0.0150584 0.0132309 0.0108123 0.00906219 0.00775399 0.00680285 0.00601627 0.00620542 0.00591101 0.00581971 0.00601276 0.00661831 0.0075629 0.00900293 0.0116497 0.0142791 0.0189608 0.0212838 0.023165 0.0227086 0.0205551 0.0152774 0.01138 0.00856599 0.00788304 0.00769552 0.00919258 0.013433 0.0124896 0.0148287 0.0131986 0.0169459 0.0149759 0.0137151 0.0111153 0.00922408 0.00796214 0.00717531 0.00661293 0.0069518 0.00690587 0.00700315 0.00731496 0.00795808 0.00893744 0.0102079 0.0120846 0.0137091 0.0162274 0.0175146 0.018547 0.0181645 0.0169793 0.0142089 0.0120099 0.00978799 0.00902399 0.00708091 0.00790361 0.0166528 0.0198077 0.0183787 0.0193965 0.0208432 0.0107638 0.00837448 0.00845379 0.00786379 0.00752804 0.00725077 0.00707126 0.0076864 0.00780486 0.0080098 0.00835767 0.00891314 0.00972326 0.0106779 0.0120054 0.0130746 0.0146171 0.0153262 0.0158982 0.0155887 0.0148275 0.0130952 0.0117242 0.0102931 0.00979832 0.00879333 0.00969888 0.0172639 0.0205566 0.0215141 0.0233705 0.0228687 0.00933738 0.00493199 0.00629832 0.00685205 0.0073147 0.00747981 0.00760084 0.00840557 0.00858098 0.00881062 0.00913544 0.00958761 0.010212 0.0109177 0.0118423 0.0125775 0.0135102 0.01394 0.0142405 0.0139723 0.0134328 0.0123772 0.0114737 0.0107857 0.0105631 0.0125526 0.01386 0.0130744 0.0176024 0.0222942 0.0228045 0.020192 0.0104875 0.00648234 0.00644768 0.00709394 0.00769132 0.00801748 0.0082429 0.00907053 0.0092542 0.00946858 0.00974565 0.0100983 0.0105599 0.0110598 0.0116908 0.012194 0.0127897 0.0130578 0.0132174 0.012994 0.0125757 0.0118344 0.0111347 0.010671 0.0102865 0.0122108 0.013533 0.0122946 0.0170115 0.0231175 0.0226039 0.0200159 0.0116504 0.00713273 0.00670594 0.00747255 0.00817905 0.00860212 0.00887941 0.00973513 0.00985704 0.0100109 0.0102158 0.0104737 0.0108036 0.011154 0.0115788 0.0119199 0.0122933 0.012462 0.0125405 0.012361 0.0120357 0.0114905 0.0109171 0.0104133 0.00989582 0.0101693 0.0107587 0.0125274 0.0179892 0.0222699 0.0220502 0.0185602 0.0122031 0.00894201 0.00845164 0.00885167 0.00921584 0.00946064 0.00961903 0.0103027 0.0103655 0.0104586 0.010593 0.010767 0.0109893 0.0112243 0.0115018 0.0117277 0.0119641 0.0120738 0.0121193 0.011997 0.0117773 0.011412 0.0110382 0.0106971 0.010482 0.0105942 0.0112067 0.012037 0.0171853 0.0197179 0.020025 0.0162723 0.0119491 0.0103705 0.00988155 0.00996403 0.0100835 0.0101873 0.0102525 0.0108047 0.0108007 0.0108301 0.0108959 0.0109947 0.0111282 0.011272 0.0114403 0.0115782 0.0117175 0.0117823 0.0118051 0.0117241 0.0115787 0.0113369 0.0110869 0.0108353 0.0107484 0.0108471 0.0116517 0.0125527 0.0155852 0.0169815 0.0167767 0.0150961 0.0127867 0.0117296 0.0111569 0.0109971 0.0109106 0.0108715 0.0108311 0.0112112 0.0111607 0.0111404 0.0111495 0.0111842 0.0112428 0.0113096 0.0113904 0.0114559 0.011523 0.0115524 0.0115629 0.0115197 0.011446 0.0113227 0.01121 0.011098 0.0111426 0.0112632 0.0119542 0.0125055 0.0142974 0.0150726 0.0151863 0.0142749 0.0130352 0.0123466 0.0118669 0.0116472 0.0114876 0.0113805 0.0112846 0.011547 0.0114613 0.0114011 0.0113633 0.0113432 0.0113382 0.0113373 0.0113425 0.0113413 0.0113432 0.011334 0.011326 0.0113023 0.0112732 0.0112298 0.0112043 0.0111891 0.0112978 0.0114476 0.0120059 0.0124563 0.0135669 0.0140342 0.0141853 0.0137871 0.0131516 0.012712 0.012344 0.012121 0.0119309 0.0117855 0.0116536 0.0118294 0.0117221 0.0116328 0.011558 0.0114903 0.0114277 0.0113615 0.0112919 0.0112212 0.0111564 0.0111031 0.0110732 0.0110607 0.0110673 0.011092 0.0111445 0.0112251 0.0113962 0.0115965 0.0120468 0.0124138 0.0131253 0.0134787 0.013669 0.0135132 0.0131918 0.0129174 0.0126463 0.0124452 0.0122561 0.0120991 0.0119531 0.0120736 0.0119554 0.0118471 0.0117459 0.0116382 0.0115238 0.0113925 0.0112421 0.0110915 0.0109452 0.0108327 0.0107712 0.0107602 0.0107936 0.0108741 0.0109895 0.0111504 0.0113757 0.0116339 0.0120422 0.0124066 0.0129379 0.013253 0.0134538 0.0134298 0.0132714 0.013091 0.0128807 0.0126976 0.0125144 0.0123548 0.0122047 
        </DataArray>
        <DataArray Name="vz" NumberOfComponents="1" type="Float32" format="ascii">
0 0 0 0 0 0 0 0 0 0 0 0 0 0 0 0 0 0 0 0 0 0 0 0 0 0 0 0 0 0 0 0 0 0 0 0 0 0 0 0 0 0 0 0 0 0 0 0 0 0 0 0 0 0 0 0 0 0 0 0 0 0 0 0 0 0 0 0 0 0 0 0 0 0 0 0 0 0 0 0 0 0 0 0 0 0 0 0 0 0 0 0 0 0 0 0 0 0 0 0 0 0 0 0 0 0 0 0 0 0 0 0 0 0 0 0 0 0 0 0 0 0 0 0 0 0 0 0 0 0 0 0 0 0 0 0 0 0 0 0 0 0 0 0 0 0 0 0 0 0 0 0 0 0 0 0 0 0 0 0 0 0 0 0 0 0 0 0 0 0 0 0 0 0 0 0 0 0 0 0 0 0 0 0 0 0 0 0 0 0 0 0 0 0 0 0 0 0 0 0 0 0 0 0 0 0 0 0 0 0 0 0 0 0 0 0 0 0 0 0 0 0 0 0 0 0 0 0 0 0 0 0 0 0 0 0 0 0 0 0 0 0 0 0 0 0 0 0 0 0 0 0 0 0 0 0 0 0 0 0 0 0 0 0 0 0 0 0 0 0 0 0 0 0 0 0 0 0 0 0 0 0 0 0 0 0 0 0 0 0 0 0 0 0 0 0 0 0 0 0 0 0 0 0 0 0 0 0 0 0 0 0 0 0 0 0 0 0 0 0 0 0 0 0 0 0 0 0 0 0 0 0 0 0 0 0 0 0 0 0 0 0 0 0 0 0 0 0 0 0 0 0 0 0 0 0 0 0 0 0 0 0 0 0 0 0 0 0 0 0 0 0 0 0 0 0 0 0 0 0 0 0 0 0 0 0 0 0 0 0 0 0 0 0 0 0 0 0 0 0 0 0 0 0 0 0 0 0 0 0 0 0 0 0 0 0 0 0 0 0 0 0 0 0 0 0 0 0 0 0 0 0 0 0 0 0 0 0 0 0 0 0 0 0 0 0 0 0 0 0 0 0 0 0 0 0 0 0 0 0 0 0 0 0 0 0 0 0 0 0 0 0 0 0 0 0 0 0 0 0 0 0 0 0 0 0 0 0 0 0 0 0 0 0 0 0 0 0 0 0 0 0 0 0 0 0 0 0 0 0 0 0 0 0 0 0 0 0 0 0 0 0 0 0 0 0 0 0 0 0 0 0 0 0 0 0 0 0 0 0 0 0 0 0 0 0 0 0 0 0 0 0 0 0 0 0 0 0 0 0 0 0 0 0 0 0 0 0 0 0 0 0 0 0 0 0 0 0 0 0 0 0 0 0 0 0 0 0 0 0 0 0 0 0 0 0 0 0 0 0 0 0 0 0 0 0 0 0 0 0 0 0 0 0 0 0 0 0 0 0 0 0 0 0 0 0 0 0 0 0 0 0 0 0 0 0 0 0 0 0 0 0 0 0 0 0 0 0 0 0 0 0 0 0 0 0 0 0 0 0 0 0 0 0 0 0 0 0 0 0 0 0 0 0 0 0 0 0 0 0 0 0 0 0 0 0 0 0 0 0 0 0 0 0 0 0 0 0 0 0 0 0 0 0 0 0 0 0 0 0 0 0 0 0 0 0 0 0 0 0 0 0 0 0 0 0 0 0 0 0 0 0 0 0 0 0 0 0 0 0 0 0 0 0 0 0 0 0 0 0 0 0 0 0 0 0 0 0 0 0 0 0 0 0 0 0 0 0 0 0 0 0 0 0 0 0 0 0 0 0 0 0 0 0 0 0 0 0 0 0 0 0 0 0 0 0 0 0 0 0 0 0 0 0 0 0 0 0 0 0 0 0 0 0 0 0 0 0 0 0 0 0 0 0 0 0 0 0 0 0 0 0 0 0 0 0 0 0 0 0 0 0 0 0 0 0 0 0 0 0 0 0 0 0 0 0 0 0 0 0 0 0 0 0 0 0 0 0 0 0 0 0 0 0 0 0 0 0 0 0 0 0 0 0 0 0 0 0 0 0 0 0 0 0 0 0 0 0 0 0 0 0 0 0 0 0 0 0 0 0 0 0 0 0 0 0 0 0 0 0 0 0 0 0 0 0 0 0 0 0 0 0 0 0 0 0 0 0 0 0 0 0 0 0 0 0 0 0 0 0 0 0 0 0 0 0 0 0 0 0 0 0 0 0 0 0 0 0 0 0 0 0 0 0 0 0 0 0 0 0 0 0 0 0 0 0 0 0 0 0 0 0 0 0 0 0 0 0 0 0 0 0 0 0 0 0 0 0 0 0 0 0 0 0 0 0 0 0 0 0 0 0 0 0 
        </DataArray>
        <DataArray Name="p" NumberOfComponents="1" type="Float32" format="ascii">