<?xml version="1.0"?>
<VTKFile type="StructuredGrid" version="0.1" byte_order="LittleEndian">
  <StructuredGrid WholeExtent="0 32 0 32 0 1">
    <Piece Extent="0 32 0 32 0 1">
      <PointData>
      </PointData>
      <CellData>
        <DataArray Name="vx" NumberOfComponents="1" type="Float32" format="ascii">
0.019181 0.0189016 0.0186132 0.0183297 0.0180571 0.0178438 0.0176965 0.0176866 0.017834 0.0181483 0.0186319 0.0192047 0.0198151 0.0204058 0.0209125 0.0213231 0.0215954 0.0217779 0.0218399 0.0218677 0.0218287 0.021764 0.0216884 0.021526 0.0213426 0.0210706 0.0208011 0.0205137 0.0202392 0.0199747 0.0197129 0.0194511 0.0190175 0.0187099 0.0183671 0.0180052 0.0176286 0.0173179 0.017075 0.0170261 0.017206 0.0176331 0.0183222 0.0191269 0.0199795 0.0207862 0.0214588 0.0219704 0.0222871 0.0224664 0.0225054 0.0224893 0.0223866 0.0222337 0.0220343 0.021724 0.0213754 0.0209866 0.020648 0.020328 0.0200527 0.0197964 0.0195492 0.0192935 0.0188405 0.0184811 0.0180469 0.0175597 0.0170192 0.016559 0.0161545 0.0160327 0.0162466 0.0168364 0.0178644 0.0190511 0.020297 0.0214455 0.0223493 0.022976 0.0233005 0.023416 0.0233633 0.0232518 0.0230432 0.0227814 0.0224641 0.0219957 0.0214584 0.0209278 0.0205119 0.0201497 0.0198722 0.019623 0.0193894 0.0191345 0.0186683 0.0182303 0.0176584 0.0169881 0.0162054 0.0155186 0.0148345 0.0145496 0.0147678 0.0156057 0.0172109 0.019046 0.0209681 0.0226693 0.0239024 0.0246042 0.0248007 0.0247216 0.0244608 0.0241902 0.0238317 0.0234463 0.0230198 0.0223533 0.0215416 0.0208088 0.020309 0.0199147 0.0196616 0.0194422 0.0192389 0.0189899 0.0185167 0.0179903 0.0172574 0.0163676 0.015258 0.0142162 0.0129571 0.0122423 0.0122907 0.0134105 0.0160296 0.0190548 0.0222287 0.0249566 0.0266754 0.0273448 0.0271314 0.0265367 0.0258508 0.0253043 0.0247263 0.0241756 0.0236902 0.0228062 0.0215938 0.0206195 0.0200555 0.0196411 0.019436 0.019261 0.0191012 0.0188651 0.0184555 0.0178515 0.0169507 0.0158 0.0142155 0.0124927 0.0100287 0.00823301 0.00773819 0.00936352 0.0138132 0.0189574 0.024423 0.0290425 0.031741 0.0321441 0.0307539 0.0289631 0.0273944 0.0264021 0.0255902 0.024955 0.0246837 0.0236662 0.0217225 0.0202715 0.0196136 0.0192092 0.0191234 0.0190568 0.0189931 0.0188067 0.018582 0.0179694 0.0169642 0.0155357 0.0131999 0.0101512 0.00518018 0.0015134 0.00045909 0.00321808 0.0105497 0.0182356 0.0267899 0.0347368 0.039435 0.0399132 0.0367493 0.0325302 0.029231 0.0273675 0.0261147 0.0253014 0.0257071 0.0247218 0.0216613 0.0197878 0.0192068 0.0188511 0.0189042 0.0189468 0.0189898 0.0188831 0.0189765 0.0184691 0.0174628 0.0157285 0.0123803 0.00724188 -0.00105801 -0.00642415 -0.00584183 0.00073037 0.0106182 0.0186246 0.0279725 0.0381946 0.0469056 0.049358 0.0440914 0.0365219 0.0305051 0.0272168 0.0253277 0.0242479 0.0271613 0.0278118 0.0223214 0.0188721 0.0182775 0.0181074 0.0184602 0.0187657 0.0190355 0.0191169 0.0198395 0.0196601 0.0189676 0.0172044 0.0131219 0.00631052 -0.00450685 -0.0059128 0.00399846 0.0140401 0.0212639 0.0259768 0.0292261 0.0337538 0.0425566 0.0511778 0.04975 0.0397694 0.0307565 0.0257015 0.0223541 0.0203762 0.024177 0.0258953 0.0198287 0.0169306 0.0176908 0.0179288 0.0184941 0.0189519 0.0193826 0.0196859 0.0210077 0.021438 0.0215615 0.020737 0.0183112 0.0138399 0.00956517 0.0192961 0.0325873 0.0357179 0.0319902 0.0271754 0.0214295 0.0169188 0.0160799 0.0267655 0.0383198 0.0341279 0.0259133 0.0200042 0.0133888 0.0115471 0.00668358 0.00123615 0.00515182 0.00993406 0.0138335 0.0161633 0.0176787 0.0187808 0.0196378 0.020364 0.0226932 0.0241005 0.0259584 0.0275568 0.0304087 0.0322309 0.0416033 0.0521121 0.0507667 0.0449066 0.0346982 0.0252994 0.0159126 0.00621149 -0.000857293 -0.0031026 0.0102687 0.0189152 0.0151 0.012227 0.00403708 0.00353066 0.00334989 -0.000877144 0.00727006 0.0141087 0.0155384 0.0175223 0.0184333 0.0194648 0.020373 0.0214267 0.0239908 0.0263292 0.0296501 0.0342139 0.0419936 0.0530104 0.0655785 0.0650073 0.0538812 0.0433554 0.0327248 0.0235136 0.01443 0.004888 -0.00411382 -0.0129143 -0.0102127 0.00141313 0.0059911 0.0101643 0.0135875 0.0156101 0.0103592 0.00463023 0.00970705 0.0150006 0.0159571 0.0176286 0.0185639 0.0196825 0.0208025 0.0221994 0.0248738 0.0278438 0.0323018 0.0389783 0.0503616 0.0666953 0.0749194 0.0657425 0.0524595 0.0412481 0.0309792 0.0220559 0.0132642 0.00424417 -0.00583236 -0.0163182 -0.0255154 -0.0183568 -0.00458385 0.00391353 0.0127991 0.017192 0.0145893 0.0150856 0.0177408 0.0177184 0.0183868 0.0188123 0.0193515 0.0201551 0.0212363 0.0227517 0.0245895 0.0273901 0.0313937 0.0374604 0.0469173 0.0599251 0.0685851 0.0622541 0.0499046 0.0392801 0.029575 0.020994 0.0124292 0.0036707 -0.00684547 -0.0182054 -0.030515 -0.0250295 -0.00835736 0.000685776 0.00869452 0.0103682 0.0131345 0.0205498 0.0214905 0.0198222 0.0194046 0.0192423 0.0195423 0.0201861 0.0211821 0.0226088 0.0235036 0.0255917 0.0282288 0.0319229 0.0367063 0.0433463 0.0564836 0.0583353 0.0480796 0.0383484 0.0287327 0.0199433 0.0109538 0.00177626 -0.00902273 -0.0190502 -0.0286773 -0.0214994 -0.00542712 0.00330429 0.0102055 0.012101 0.0154646 0.0211533 0.021237 0.0201952 0.0197006 0.0194062 0.0195858 0.0200515 0.0208467 0.021989 0.0220252 0.0231522 0.0245236 0.0257207 0.0273013 0.0284908 0.0407315 0.0502171 0.0457062 0.0382777 0.0289326 0.0196104 0.00994131 0.000203189 -0.00989847 -0.0151703 -0.0113078 -0.00151505 0.00591285 0.0112455 0.0147338 0.0167364 0.0185703 0.0209315 0.0207877 0.0200891 0.0196494 0.0193461 0.0194598 0.0197673 0.0203313 0.0210722 0.0204785 0.0206926 0.0206163 0.0197911 0.0173477 0.013468 0.0108549 0.0213895 0.0322059 0.0314641 0.0263611 0.018358 0.00923632 0.00128462 -0.0039531 0.000799984 0.0161474 0.0215723 0.0182153 0.0187361 0.0190203 0.0199289 0.0205043 0.0210142 0.0206467 0.02 0.0196346 0.0193079 0.0193718 0.0195157 0.019825 0.0201541 0.0192509 0.0187711 0.0178154 0.0159087 0.0119278 0.00561018 -0.00350108 -0.00268557 0.00990191 0.0174927 0.0196696 0.0177961 0.014924 0.0152629 0.0205887 0.0318083 0.038546 0.0341807 0.0272666 0.0247227 0.0231411 0.0230614 0.0224112 0.0213381 0.0207134 0.0199966 0.0196944 0.0193249 0.0193644 0.0193657 0.0194563 0.0194237 0.0185849 0.0177111 0.0163398 0.0142009 0.0104381 0.00469266 -0.00361498 -0.00791448 -0.00435266 0.00383213 0.0118152 0.0190334 0.0264883 0.0346887 0.0449877 0.0501285 0.0461437 0.0377895 0.0307168 0.027676 0.0254567 0.0259037 0.0238936 0.0202708 0.0199556 0.0197355 0.0197152 0.0193659 0.0194906 0.0194244 0.0193713 0.0190885 0.0183423 0.0173242 0.0159013 0.0140343 0.0112506 0.00758361 0.00212374 -0.00157004 -0.0019337 0.00293569 0.0106538 0.0202393 0.0303923 0.0389856 0.0456625 0.0453767 0.0405101 0.0349071 0.0306867 0.0294116 0.0289355 0.0290639 0.0238913 0.0175308 0.0166756 0.0177589 0.0192139 0.0192429 0.0195881 0.0195374 0.0194269 0.0190063 0.0185533 0.0175105 0.016168 0.0145894 0.0126019 0.0104443 0.00756685 0.00567844 0.00525371 0.00791795 0.0130774 0.0200162 0.0274196 0.0333162 0.0371237 0.0369491 0.0346026 0.0317217 0.0298103 0.0295172 0.0312658 0.0253522 0.0206515 0.0221297 0.0161011 0.0144337 0.0179223 0.0189796 0.0198551 0.0199484 0.0198059 0.0193009 0.0188543 0.0178955 0.0167325 0.0154636 0.0140341 0.0127596 0.0113044 0.0106 0.0106087 0.0122823 0.0154531 0.0196457 0.0241665 0.0278515 0.0302442 0.0303426 0.0293958 0.0276185 0.0259743 0.0239709 0.0205421 0.0169894 0.0180747 0.020063 0.0181183 0.016738 0.0174631 0.0191896 0.0200852 0.0202701 0.0201074 0.0195874 0.0193574 0.018452 0.0174411 0.0164096 0.0153417 0.0145001 0.0137282 0.0135399 0.0138134 0.0149889 0.0169535 0.0194671 0.0221702 0.0244039 0.0260434 0.0263991 0.0263753 0.0252726 0.0246458 0.0223345 0.0194538 0.0191079 0.0206419 0.0210184 0.0217099 0.0221721 0.0207833 0.0213702 0.0214501 0.0212948 0.0208116 0.0201541 0.0196702 0.0188698 0.0180321 0.0172233 0.0164323 0.0158486 0.0153903 0.0153658 0.0156639 0.0165026 0.017785 0.0193442 0.0210042 0.0223822 0.0234301 0.023641 0.0236935 0.0226603 0.0220886 0.0187736 0.0167441 0.0190883 0.0217966 0.0229631 0.0259807 0.0268883 0.0235653 0.0230101 0.0223066 0.0218072 0.0211416 0.0204389 0.0199677 0.0192347 0.0185196 0.0178696 0.0172717 0.0168476 0.0165547 0.0165735 0.016832 0.0174283 0.0182879 0.0193004 0.020355 0.0212292 0.0218886 0.022084 0.0220964 0.0216396 0.0211727 0.0202123 0.0184197 0.0188536 0.0227714 0.024442 0.0250329 0.0254931 0.024617 0.0241884 0.0231276 0.0223626 0.0215104 0.0207393 0.0200381 0.0194084 0.0188186 0.0183039 0.0178533 0.0175433 0.0173482 0.0173734 0.0175731 0.0179942 0.0185803 0.0192519 0.0199286 0.0204786 0.0208531 0.0209592 0.0209187 0.0207823 0.0209111 0.0218764 0.0249022 0.0237837 0.0232232 0.0249872 0.0245051 0.0253848 0.0253213 0.0243503 0.0231758 0.0222991 0.0214523 0.0207299 0.0200466 0.0195008 0.0190044 0.0185846 0.0182328 0.0179974 0.0178629 0.0178897 0.0180491 0.0183604 0.0187823 0.0192594 0.0197275 0.0201073 0.0203332 0.0203892 0.020236 0.0200387 0.019716 0.0198969 0.0212083 0.0226108 0.0224066 0.0233079 0.025122 0.0255172 0.0252525 0.0241002 0.0229843 0.0221207 0.0213266 0.0206639 0.0199383 0.0194846 0.0190748 0.0187316 0.0184514 0.0182671 0.0181707 0.0181976 0.0183302 0.018575 0.0189016 0.019269 0.0196252 0.0199208 0.0200876 0.0201474 0.0200123 0.0198935 0.0195942 0.0196094 0.0196999 0.0206954 0.0216293 0.0229954 0.0248061 0.0246766 0.0240855 0.0231797 0.022329 0.0216408 0.0209977 0.0204504 0.0198065 0.019425 0.0190791 0.0187889 0.0185549 0.018402 0.0183276 0.0183555 0.0184758 0.0186893 0.0189742 0.0192983 0.0196189 0.0199018 0.0200826 0.0201871 0.0201148 0.0200464 0.0198105 0.0198061 0.0199022 0.0204895 0.0213656 0.0223113 0.0232494 0.0231921 0.022866 0.0222998 0.021709 0.0211868 0.0206793 0.0202318 0.0196503 0.0193256 0.019027 0.0187723 0.0185654 0.0184286 0.0183636 0.0183911 0.0185077 0.0187128 0.0189904 0.0193113 0.0196389 0.0199447 0.0201726 0.0203429 0.0203698 0.0203902 0.0202677 0.0202887 0.02034 0.0206532 0.0211872 0.0217054 0.0222223 0.0221685 0.0219541 0.0215774 0.0211587 0.0207641 0.0203678 0.0200038 0.0194952 0.0192057 0.0189333 0.0186941 0.0184937 0.0183563 0.0182864 0.01831 0.0184296 0.0186463 0.0189492 0.0193054 0.0196796 0.0200417 0.0203403 0.020585 0.0207067 0.0207988 0.0207652 0.0207946 0.020823 0.0209658 0.0212315 0.0214362 0.02164 0.0215493 0.0213669 0.0210781 0.0207546 0.0204361 0.020111 0.0198015 0.0193402 0.0190657 0.0187977 0.0185506 0.0183311 0.0181708 0.0180768 0.0180897 0.0182198 0.0184713 0.0188375 0.0192714 0.0197332 0.0201841 0.0205719 0.0208944 0.0210997 0.0212505 0.0212856 0.021325 0.0213237 0.0213455 0.0214113 0.0214078 0.0213973 0.0212239 0.021011 0.0207417 0.020459 0.0201799 0.0198968 0.0196197 
        </DataArray>
        <DataArray Name="vy" NumberOfComponents="1" type="Float32" format="ascii">
0.0125213 0.0124051 0.0122844 0.0121518 0.0119906 0.011778 0.0115279 0.0111949 0.010867 0.010521 0.0102653 0.0101067 0.0100659 0.010136 0.0103021 0.0105402 0.0108236 0.011152 0.0114919 0.0118952 0.0122825 0.0127049 0.0130387 0.0133057 0.0134194 0.0134077 0.0133365 0.0132038 0.0130676 0.0129175 0.0127781 0.0126448 0.0127999 0.0127018 0.0125936 0.0124606 0.012275 0.0119922 0.011642 0.0111269 0.0106222 0.0100629 0.00966225 0.00942344 0.00937653 0.0095059 0.00978424 0.0101515 0.0105772 0.0110129 0.0114556 0.0119098 0.0123735 0.0128214 0.0132304 0.0135439 0.0137155 0.0137122 0.0136398 0.0134907 0.0133371 0.0131771 0.0130351 0.01291 0.0131029 0.0130531 0.0129894 0.0128816 0.0126845 0.012316 0.0118338 0.0110478 0.0102776 0.00938758 0.00878183 0.00844244 0.00840722 0.00865626 0.00912105 0.00971044 0.0103367 0.0109199 0.0114791 0.0119929 0.0125445 0.0130405 0.0135555 0.0139542 0.0141768 0.0141321 0.0140111 0.013801 0.0136048 0.0134229 0.0132805 0.0131769 0.0134545 0.0134965 0.0135248 0.0134832 0.0133003 0.0128402 0.0122037 0.0110082 0.00985154 0.00841347 0.00746785 0.0069819 0.00697452 0.00744558 0.0082511 0.00919219 0.0101475 0.0109412 0.0116446 0.0122257 0.0128664 0.013409 0.014022 0.0145474 0.0147879 0.0146297 0.0144154 0.0141102 0.0138587 0.0136536 0.0135207 0.0134596 0.0138601 0.0140532 0.0142325 0.0143053 0.0141696 0.0136406 0.0128405 0.0110802 0.00927696 0.00689086 0.00537037 0.00467065 0.00477992 0.00573801 0.0071864 0.0088357 0.0102323 0.0112453 0.0120131 0.0125894 0.0132604 0.0138453 0.0145881 0.0154388 0.0157562 0.0153769 0.0149565 0.0144624 0.0141027 0.0138542 0.0137382 0.0137488 0.0143335 0.0147574 0.0151773 0.0154707 0.0155194 0.0150942 0.0142661 0.0115957 0.00878435 0.00456964 0.00191124 0.000792362 0.00102102 0.00298394 0.00585224 0.0087148 0.0109631 0.0122114 0.0129158 0.0133804 0.0140091 0.0145682 0.0153599 0.0167288 0.0169394 0.0160834 0.0153611 0.0146577 0.0142124 0.0139595 0.0139047 0.0140397 0.0148134 0.0155322 0.0162813 0.0169671 0.0175039 0.0177313 0.0171773 0.0133783 0.00827535 0.000652475 -0.00418744 -0.00597984 -0.00531926 -0.00150923 0.00406991 0.00994623 0.0134561 0.0145992 0.0145585 0.0143786 0.0145392 0.0148569 0.0153867 0.0185186 0.0192144 0.0175835 0.016172 0.0150183 0.0143364 0.0140188 0.014012 0.0142926 0.0152562 0.0163835 0.0176752 0.0192206 0.0210309 0.0229996 0.0230133 0.0161181 0.00737948 -0.0058793 -0.0127167 -0.0152394 -0.0158665 -0.0096844 0.000722169 0.0112915 0.018326 0.0196886 0.0180844 0.0166071 0.0159125 0.0155986 0.0159079 0.0212635 0.0216244 0.0182896 0.0161439 0.014759 0.0140253 0.0137942 0.0139326 0.0144328 0.0154566 0.0169991 0.0190056 0.0219274 0.0260323 0.0310695 0.0309099 0.0186143 0.00105663 -0.0165403 -0.0223465 -0.0235703 -0.0247739 -0.0204259 -0.00732947 0.0131743 0.0264598 0.0281931 0.0238835 0.0197456 0.0171137 0.0135886 0.00909344 0.0240004 0.0284516 0.0220282 0.0173066 0.0150371 0.0138597 0.0135344 0.0137155 0.0143696 0.0152916 0.0172935 0.0202074 0.0250931 0.0319758 0.0403324 0.0345146 0.00729852 -0.0126511 -0.0223179 -0.0239226 -0.0228837 -0.0234956 -0.022947 -0.016736 0.00331273 0.0294446 0.038429 0.0319445 0.0250614 0.0200009 0.0163025 0.0115278 0.0269686 0.0293857 0.0195718 0.0147096 0.0135613 0.0127965 0.0127687 0.0131271 0.0139568 0.0143649 0.0163961 0.0196665 0.0250952 0.0330551 0.0399804 0.0262029 -0.00362465 -0.0156165 -0.0162441 -0.0145899 -0.0133943 -0.0142959 -0.015453 -0.0165009 -0.00845448 0.0202156 0.0401757 0.03836 0.0328578 0.027208 0.0168541 0.0178764 0.0240179 0.0209973 0.0139034 0.0116617 0.0115362 0.0114831 0.0117247 0.0122016 0.0130299 0.0126176 0.0141341 0.0167611 0.0208887 0.0270143 0.0291702 0.0145466 -0.00187798 -0.00563715 -0.00555464 -0.00446714 -0.00398682 -0.00455819 -0.00611402 -0.00804273 -0.00853957 0.00702049 0.0339919 0.0386248 0.0340159 0.0299607 0.0161197 0.0209912 0.0227075 0.0139867 0.0109491 0.0109327 0.0104794 0.0106103 0.0107398 0.0110834 0.0116418 0.0101887 0.0107068 0.0116467 0.0127277 0.0140618 0.0162949 0.0143058 0.0081337 0.00576709 0.00516345 0.00513051 0.00504531 0.00445249 0.00332749 0.00144688 -0.00131264 0.00563643 0.0240602 0.0293198 0.0254934 0.0228807 0.0176498 0.0279707 0.0239023 0.0107279 0.00829898 0.00915923 0.00926218 0.00955455 0.00961573 0.00972265 0.0098638 0.00753754 0.00679676 0.0056777 0.00299682 -0.000547211 0.00447376 0.015473 0.0204525 0.0184758 0.0160697 0.0144693 0.0137132 0.0130693 0.0127937 0.0123242 0.0105253 0.0090179 0.013388 0.0169287 0.0168278 0.0166429 0.0153031 0.0240276 0.019399 0.0113486 0.00978924 0.00960021 0.00932536 0.00912561 0.00878557 0.00844328 0.00801362 0.00537476 0.00389643 0.00147095 -0.00272634 -0.00879743 -0.00491642 0.0117564 0.0272414 0.028439 0.0257639 0.0233275 0.0223893 0.021875 0.0227362 0.0236158 0.022411 0.0129799 0.00110151 0.00312662 0.00821383 0.0122392 0.0133922 0.0175165 0.0153451 0.0118103 0.0105179 0.00987249 0.00924599 0.00868676 0.00802753 0.00731968 0.00646112 0.0039283 0.00209977 -0.000745895 -0.00540807 -0.0125728 -0.0150917 -0.000769663 0.0301257 0.0382317 0.03572 0.0327112 0.0316199 0.0310895 0.0325426 0.033254 0.0295778 0.0128034 -0.0109334 -0.00742505 0.00148889 0.00785804 0.0107365 0.0146119 0.0136918 0.0122772 0.0112003 0.0103189 0.00934532 0.00843645 0.00748324 0.00649414 0.00535375 0.00330137 0.001471 -0.00104892 -0.00517764 -0.0113241 -0.0173256 -0.0100038 0.0218266 0.0395834 0.0426193 0.0416258 0.041526 0.0411759 0.0424803 0.0390333 0.0226494 -0.000122062 -0.0163565 -0.00915183 -0.000350078 0.0064176 0.0096945 0.0131961 0.0131724 0.0127175 0.0116922 0.0107011 0.00945963 0.00831907 0.00716897 0.00603486 0.0047811 0.00338142 0.00191197 0.000122393 -0.00240672 -0.00622114 -0.0100255 -0.00756653 0.00899857 0.0288351 0.0414351 0.0457063 0.0494514 0.0480129 0.0454514 0.0341527 0.00991731 -0.0076971 -0.0129765 -0.00576308 0.000891509 0.00651976 0.00937783 0.013708 0.0136043 0.0132148 0.0121005 0.0110072 0.0095235 0.0082269 0.00699016 0.00585372 0.00468048 0.00397682 0.00292758 0.00189192 0.000736567 -0.000723044 -0.00217544 -0.00104843 0.00763173 0.0194816 0.0333915 0.0404686 0.0464288 0.0431937 0.03687 0.02289 0.00503383 -0.00287403 -0.00408194 0.000115512 0.00396093 0.00788676 0.0103543 0.014827 0.0147507 0.014219 0.012714 0.0115014 0.00977949 0.0083519 0.00707985 0.00600997 0.00499452 0.0047527 0.0041169 0.00362744 0.00335376 0.00331845 0.00363869 0.00511046 0.00989646 0.0165901 0.025315 0.0308584 0.0352111 0.0324708 0.0273334 0.0182905 0.00889967 0.00392728 0.00261615 0.00409006 0.00641347 0.00819895 0.0102093 0.0208636 0.0179073 0.012853 0.0121397 0.0113733 0.00964046 0.00818666 0.00705887 0.00618712 0.00543993 0.00568253 0.00536897 0.0052266 0.00536429 0.00586605 0.00685208 0.00836693 0.0115689 0.0152144 0.0203959 0.0235681 0.0260282 0.0245509 0.0215305 0.0159415 0.0106584 0.00734221 0.0059145 0.0053174 0.00571407 0.00795617 0.0159188 0.0254204 0.0213476 0.0149977 0.0104129 0.0102038 0.00939549 0.0081372 0.00723818 0.0065814 0.0060854 0.00653551 0.00647731 0.00655331 0.00686555 0.00749832 0.00856772 0.00995619 0.0121844 0.0144128 0.0173437 0.0190586 0.0203989 0.0194589 0.0177624 0.0145908 0.0115998 0.00909023 0.00783129 0.00633811 0.00673849 0.010917 0.0212809 0.0234646 0.0226686 0.01935 0.0100209 0.00740783 0.00770542 0.00730399 0.00708623 0.00683269 0.0066681 0.00739193 0.00749108 0.00768184 0.00804477 0.0086246 0.00953543 0.0106215 0.0122075 0.0136322 0.0154311 0.0163715 0.0170902 0.0164671 0.0154116 0.0133844 0.0115281 0.00984127 0.00901303 0.00817037 0.00970189 0.0153949 0.0200699 0.0222176 0.0224262 0.0190827 0.01126 0.00670345 0.00669838 0.00690775 0.00719627 0.00727013 0.00734351 0.00822191 0.00837587 0.00859667 0.00894154 0.00942914 0.0101426 0.0109592 0.0120631 0.0130159 0.0141272 0.0146797 0.0150573 0.0146154 0.0138931 0.0126143 0.0113705 0.0103753 0.00973646 0.0104926 0.0113848 0.0155593 0.0182218 0.0211351 0.021172 0.0167954 0.0123598 0.00836093 0.00725526 0.00736925 0.00773482 0.00794422 0.00810235 0.0089779 0.009137 0.00934307 0.00963785 0.0100227 0.010556 0.0111416 0.0119009 0.0125378 0.0132518 0.0135865 0.0137878 0.0134698 0.0129526 0.0121036 0.0112632 0.0107617 0.0105077 0.0122595 0.0143543 0.0167156 0.0143402 0.0179977 0.0190888 0.0152444 0.0136617 0.00968778 0.00793772 0.00801182 0.00838957 0.00865141 0.00883815 0.00970858 0.00981154 0.00995928 0.010178 0.0104611 0.0108433 0.0112543 0.0117652 0.0121889 0.0126401 0.0128472 0.0129508 0.0127232 0.0123491 0.0117628 0.0111557 0.0107503 0.0105164 0.0114367 0.0134345 0.0164792 0.0149384 0.0154255 0.0188546 0.0156927 0.0130193 0.0102138 0.00904909 0.00916435 0.00937199 0.00952949 0.00962878 0.0103146 0.0103667 0.0104569 0.0106021 0.0107939 0.011052 0.0113266 0.0116596 0.0119338 0.012218 0.0123472 0.0124057 0.012256 0.0120086 0.0116241 0.0112269 0.0109463 0.0107819 0.011177 0.0118857 0.0138631 0.0162851 0.0155989 0.0181888 0.0151689 0.0122079 0.01061 0.0100526 0.0100958 0.010174 0.0102476 0.0102836 0.0108572 0.0108464 0.0108728 0.0109444 0.0110526 0.0112064 0.0113715 0.01157 0.0117315 0.0118951 0.0119661 0.0119934 0.0118957 0.0117385 0.0114935 0.0112498 0.011063 0.0110313 0.0113231 0.0120304 0.0132273 0.0145224 0.0150148 0.0156281 0.0140134 0.0126817 0.0117153 0.0112288 0.0110864 0.0109952 0.010948 0.0108941 0.011288 0.0112364 0.0112144 0.0112256 0.0112627 0.0113288 0.0114018 0.0114924 0.0115625 0.0116346 0.0116589 0.0116655 0.0116086 0.0115284 0.0114019 0.0112946 0.0112092 0.0112619 0.0114518 0.0120029 0.0126738 0.0137482 0.0140105 0.0144809 0.01361 0.0127989 0.0122122 0.0118418 0.011679 0.011546 0.0114542 0.0113616 0.0116573 0.0115712 0.0115077 0.0114668 0.0114416 0.0114312 0.0114226 0.0114182 0.0114041 0.0113924 0.011366 0.0113445 0.0113053 0.0112718 0.0112267 0.0112135 0.0112148 0.0113351 0.0115145 0.0119734 0.012431 0.0131143 0.0133878 0.0136544 0.0133204 0.012945 0.0126102 0.0123353 0.0121688 0.0120107 0.011885 0.0117616 0.0119681 0.0118622 0.0117691 0.0116871 0.0116084 0.0115283 0.0114421 0.011344 0.0112436 0.0111455 0.0110624 0.0110081 0.0109772 0.0109816 0.0110083 0.0110796 0.0111707 0.0113545 0.0115561 0.0119481 0.0122952 0.0128153 0.0130715 0.0133191 0.01321 0.0130307 0.0128423 0.0126487 0.0125035 0.0123514 0.0122183 0.0120862 0.0122508 0.0121331 0.0120193 0.0119058 0.0117819 0.0116367 0.0114733 0.0112722 0.0110729 0.0108696 0.010712 0.0106114 0.0105759 0.0106078 0.0106962 0.0108409 0.0110193 0.0112677 0.0115282 0.0119104 0.0122552 0.0126936 0.0129734 0.0132137 0.0132474 0.0131858 0.0130816 0.0129353 0.0128008 0.0126515 0.0125134 0.0123768 
        </DataArray>
        <DataArray Name="vz" NumberOfComponents="1" type="Float32" format="ascii">
0 0 0 0 0 0 0 0 0 0 0 0 0 0 0 0 0 0 0 0 0 0 0 0 0 0 0 0 0 0 0 0 0 0 0 0 0 0 0 0 0 0 0 0 0 0 0 0 0 0 0 0 0 0 0 0 0 0 0 0 0 0 0 0 0 0 0 0 0 0 0 0 0 0 0 0 0 0 0 0 0 0 0 0 0 0 0 0 0 0 0 0 0 0 0 0 0 0 0 0 0 0 0 0 0 0 0 0 0 0 0 0 0 0 0 0 0 0 0 0 0 0 0 0 0 0 0 0 0 0 0 0 0 0 0 0 0 0 0 0 0 0 0 0 0 0 0 0 0 0 0 0 0 0 0 0 0 0 0 0 0 0 0 0 0 0 0 0 0 0 0 0 0 0 0 0 0 0 0 0 0 0 0 0 0 0 0 0 0 0 0 0 0 0 0 0 0 0 0 0 0 0 0 0 0 0 0 0 0 0 0 0 0 0 0 0 0 0 0 0 0 0 0 0 0 0 0 0 0 0 0 0 0 0 0 0 0 0 0 0 0 0 0 0 0 0 0 0 0 0 0 0 0 0 0 0 0 0 0 0 0 0 0 0 0 0 0 0 0 0 0 0 0 0 0 0 0 0 0 0 0 0 0 0 0 0 0 0 0 0 0 0 0 0 0 0 0 0 0 0 0 0 0 0 0 0 0 0 0 0 0 0 0 0 0 0 0 0 0 0 0 0 0 0 0 0 0 0 0 0 0 0 0 0 0 0 0 0 0 0 0 0 0 0 0 0 0 0 0 0 0 0 0 0 0 0 0 0 0 0 0 0 0 0 0 0 0 0 0 0 0 0 0 0 0 0 0 0 0 0 0 0 0 0 0 0 0 0 0 0 0 0 0 0 0 0 0 0 0 0 0 0 0 0 0 0 0 0 0 0 0 0 0 0 0 0 0 0 0 0 0 0 0 0 0 0 0 0 0 0 0 0 0 0 0 0 0 0 0 0 0 0 0 0 0 0 0 0 0 0 0 0 0 0 0 0 0 0 0 0 0 0 0 0 0 0 0 0 0 0 0 0 0 0 0 0 0 0 0 0 0 0 0 0 0 0 0 0 0 0 0 0 0 0 0 0 0 0 0 0 0 0 0 0 0 0 0 0 0 0 0 0 0 0 0 0 0 0 0 0 0 0 0 0 0 0 0 0 0 0 0 0 0 0 0 0 0 0 0 0 0 0 0 0 0 0 0 0 0 0 0 0 0 0 0 0 0 0 0 0 0 0 0 0 0 0 0 0 0 0 0 0 0 0 0 0 0 0 0 0 0 0 0 0 0 0 0 0 0 0 0 0 0 0 0 0 0 0 0 0 0 0 0 0 0 0 0 0 0 0 0 0 0 0 0 0 0 0 0 0 0 0 0 0 0 0 0 0 0 0 0 0 0 0 0 0 0 0 0 0 0 0 0 0 0 0 0 0 0 0 0 0 0 0 0 0 0 0 0 0 0 0 0 0 0 0 0 0 0 0 0 0 0 0 0 0 0 0 0 0 0 0 0 0 0 0 0 0 0 0 0 0 0 0 0 0 0 0 0 0 0 0 0 0 0 0 0 0 0 0 0 0 0 0 0 0 0 0 0 0 0 0 0 0 0 0 0 0 0 0 0 0 0 0 0 0 0 0 0 0 0 0 0 0 0 0 0 0 0 0 0 0 0 0 0 0 0 0 0 0 0 0 0 0 0 0 0 0 0 0 0 0 0 0 0 0 0 0 0 0 0 0 0 0 0 0 0 0 0 0 0 0 0 0 0 0 0 0 0 0 0 0 0 0 0 0 0 0 0 0 0 0 0 0 0 0 0 0 0 0 0 0 0 0 0 0 0 0 0 0 0 0 0 0 0 0 0 0 0 0 0 0 0 0 0 0 0 0 0 0 0 0 0 0 0 0 0 0 0 0 0 0 0 0 0 0 0 0 0 0 0 0 0 0 0 0 0 0 0 0 0 0 0 0 0 0 0 0 0 0 0 0 0 0 0 0 0 0 0 0 0 0 0 0 0 0 0 0 0 0 0 0 0 0 0 0 0 0 0 0 0 0 0 0 0 0 0 0 0 0 0 0 0 0 0 0 0 0 0 0 0 0 0 0 0 0 0 0 0 0 0 0 0 0 0 0 0 0 0 0 0 0 0 0 0 0 0 0 0 0 0 0 0 0 0 0 0 0 0 0 0 0 0 0 0 0 0 0 0 0 0 0 0 0 0 0 0 0 0 0 0 0 0 0 0 0 0 0 0 0 0 0 0 0 0 0 0 0 0 0 0 0 0 0 
        </DataArray>
        <DataArray Name="p" NumberOfComponents="1" type="Float32" format="ascii">