<?xml version="1.0"?>
<VTKFile type="StructuredGrid" version="0.1" byte_order="LittleEndian">
  <StructuredGrid WholeExtent="0 32 0 32 0 1">
    <Piece Extent="0 32 0 32 0 1">
      <PointData>
      </PointData>
      <CellData>
        <DataArray Name="vx" NumberOfComponents="1" type="Float32" format="ascii">
0.0190937 0.0187654 0.018414 0.0180606 0.0176963 0.0173745 0.017102 0.0169683 0.017006 0.017292 0.0178616 0.0186039 0.0194553 0.0202895 0.0210073 0.0215708 0.0219771 0.0222523 0.0224119 0.0225233 0.0225337 0.0225198 0.0223876 0.0220896 0.0217678 0.0213991 0.0210454 0.020683 0.0203529 0.0200292 0.0197214 0.019412 0.0189616 0.0186148 0.0182181 0.0177928 0.0173228 0.0168783 0.0164638 0.0162172 0.0161882 0.0165289 0.017319 0.0183612 0.0195541 0.0206984 0.0216276 0.0222984 0.0227357 0.0229767 0.0230899 0.023118 0.0230625 0.0229426 0.0227172 0.0223509 0.0219077 0.0214333 0.0209878 0.0205753 0.0202177 0.0198894 0.0195858 0.0192825 0.0188358 0.0184527 0.0179809 0.0174441 0.0168156 0.0161882 0.015549 0.0151089 0.0149266 0.0153195 0.0164772 0.0180238 0.0197909 0.0214519 0.0226815 0.0234532 0.0238682 0.0239935 0.0239909 0.0238867 0.0237314 0.023493 0.0231576 0.0226774 0.0220729 0.0214687 0.0209242 0.0204635 0.0200863 0.0197603 0.0194657 0.0191677 0.0186981 0.0182715 0.0177059 0.0170231 0.0161835 0.0152854 0.0142823 0.0134825 0.0129726 0.0134103 0.0151906 0.017613 0.0203512 0.0228565 0.0245125 0.0253273 0.0255623 0.0253864 0.0251273 0.0248055 0.0245174 0.0241715 0.0237657 0.0231738 0.0223426 0.0215301 0.0208375 0.0203051 0.019907 0.0195923 0.0193195 0.0190372 0.0186069 0.0181345 0.0174656 0.0166143 0.0155118 0.0142222 0.0126047 0.0110999 0.00975775 0.0100571 0.0129369 0.0169218 0.0214162 0.0254991 0.0278062 0.0284839 0.028215 0.0273692 0.0266087 0.0259325 0.0254577 0.0249786 0.0244868 0.023718 0.0225599 0.0214821 0.0206414 0.0200712 0.0196929 0.0194239 0.0191984 0.0189466 0.0185534 0.0180746 0.0173382 0.016311 0.0148639 0.0128953 0.0101743 0.00734938 0.00457037 0.00473314 0.00942671 0.0159023 0.0231515 0.0297451 0.0331511 0.0335819 0.0322741 0.0300709 0.0282903 0.0269793 0.0262484 0.0257472 0.0254688 0.0247314 0.0231018 0.0214989 0.020375 0.0197151 0.019361 0.0191672 0.0190289 0.0188499 0.0186838 0.0182503 0.017509 0.0163265 0.0144773 0.0115439 0.00732232 0.00265921 -0.00284803 -0.00315905 0.00464249 0.0146196 0.0253897 0.0357399 0.0407859 0.0408043 0.0380341 0.033674 0.0302364 0.0279303 0.026843 0.0263075 0.0263577 0.0256911 0.0234637 0.0212628 0.0198952 0.0192633 0.0190226 0.0189672 0.0189605 0.0188919 0.0189746 0.0187255 0.01813 0.0168596 0.0145825 0.0103848 0.00474664 -0.000754121 -0.00639205 -0.00423289 0.00602206 0.016762 0.0272923 0.0379293 0.0447699 0.0466333 0.0438318 0.0372744 0.0315544 0.02768 0.0258456 0.0254993 0.0267599 0.0271424 0.0244001 0.0209819 0.0191369 0.0185267 0.0184549 0.0186178 0.0188295 0.0189722 0.0196129 0.0196732 0.0194444 0.0184293 0.0165373 0.0126394 0.0103382 0.00993207 0.0122587 0.0209311 0.0258126 0.0267387 0.0262776 0.0273594 0.0331604 0.0410486 0.0428546 0.0372777 0.0307078 0.0257 0.0232286 0.0223204 0.0223858 0.0225833 0.0211121 0.0186895 0.0174958 0.0175812 0.0179596 0.0184458 0.0189235 0.0193201 0.0204767 0.0211317 0.0217281 0.0217649 0.0217452 0.0203926 0.0245915 0.0299561 0.036956 0.0425922 0.0372587 0.0305135 0.0230071 0.0166523 0.0168906 0.0240581 0.0304885 0.0296765 0.0247747 0.0192072 0.0143548 0.0106102 0.00866448 0.00835038 0.0104292 0.0126926 0.0139723 0.0156911 0.0169391 0.017999 0.0188997 0.0197045 0.0215636 0.0228543 0.0244099 0.0260132 0.0283233 0.0312239 0.037118 0.0439022 0.0490782 0.0475797 0.0385243 0.0287581 0.0188783 0.00937529 0.00402909 0.0042502 0.0098564 0.0142474 0.0138399 0.0106504 0.00587982 0.00175708 -0.00125683 -0.00291708 0.000111283 0.00666344 0.0117057 0.0146468 0.0166465 0.0180287 0.0192252 0.0203432 0.0225331 0.0245344 0.0271989 0.0306729 0.0357532 0.0425017 0.0469256 0.0511267 0.0531076 0.046569 0.0367226 0.0266852 0.016662 0.00662656 -0.0020242 -0.00811133 -0.0081987 -0.0010447 0.00530503 0.00835951 0.0124697 0.00883085 0.00103545 -0.000238937 -0.00196526 0.00333518 0.0110157 0.0141324 0.0164786 0.01802 0.0194351 0.0208559 0.0231949 0.0255274 0.0288199 0.0331968 0.0400525 0.0470866 0.0509012 0.054141 0.0526475 0.0439185 0.0340716 0.0244206 0.0148932 0.00527917 -0.00423771 -0.013164 -0.0161639 -0.0106262 -0.00359084 0.00272736 0.00611837 0.00467483 0.00424633 0.0102144 0.0151209 0.0157724 0.0163012 0.0170717 0.0178634 0.0188113 0.0199602 0.0213616 0.0232124 0.0256253 0.0289894 0.0337895 0.0407764 0.0498361 0.056479 0.0579265 0.0527814 0.0426538 0.0326024 0.0229697 0.0135144 0.00411162 -0.0055471 -0.0150837 -0.0169284 -0.0116654 -0.00521312 0.0031885 0.00741331 0.0137139 0.0188159 0.0178286 0.0196953 0.0198894 0.0182177 0.018028 0.0183151 0.0190062 0.0200307 0.0213864 0.0226484 0.0247157 0.0274196 0.0315467 0.0367517 0.0464572 0.0552287 0.0572877 0.0526108 0.042371 0.0320098 0.0217789 0.0116698 0.00203391 -0.00800658 -0.0170279 -0.0189041 -0.0127909 -0.00438779 0.00444873 0.0100995 0.0166818 0.0208532 0.0199549 0.0203838 0.0200474 0.0189989 0.0186299 0.01871 0.0191774 0.0199897 0.0211224 0.0215651 0.0229196 0.0244867 0.0266548 0.0287512 0.0336919 0.0388547 0.0461602 0.0483667 0.0403084 0.0308935 0.0203113 0.00936613 -0.000372424 -0.00997729 -0.0155598 -0.0183126 -0.0116866 0.000112477 0.0080343 0.0133594 0.0177826 0.0206952 0.0209322 0.0208394 0.0199895 0.0191259 0.0187115 0.0187324 0.0190621 0.0196743 0.0205029 0.0204097 0.0210489 0.0215543 0.022111 0.0219633 0.0225379 0.0258357 0.0336344 0.038775 0.0359131 0.0290328 0.0189448 0.00824522 0.000901928 -0.00319455 -0.00119219 0.00382751 0.00924337 0.013861 0.0169477 0.0190113 0.0214702 0.0223733 0.0211777 0.0202107 0.0194519 0.0189249 0.0186647 0.0187264 0.0189633 0.0193691 0.0198631 0.0193467 0.0192502 0.018747 0.0176901 0.0153083 0.0114674 0.00875892 0.00749058 0.0145466 0.0218317 0.0214444 0.0161482 0.0093653 0.00825284 0.0123962 0.0207418 0.0274526 0.0274822 0.0247579 0.0237457 0.0236786 0.024763 0.0241096 0.0213353 0.019287 0.0186721 0.0186152 0.0185725 0.0187385 0.018915 0.0191347 0.019297 0.0186874 0.0181147 0.0170419 0.0153139 0.0121837 0.00696778 0.000739 -0.00628007 -0.00553976 0.00347017 0.0108857 0.0154566 0.0189661 0.0253727 0.0339181 0.0399046 0.0397771 0.0351824 0.0304138 0.0282583 0.0276445 0.0290392 0.0270142 0.020516 0.0169172 0.0172625 0.0180588 0.0184512 0.0188153 0.0189971 0.0190907 0.0190028 0.0184688 0.0176139 0.0163082 0.0144961 0.0117087 0.00748567 0.00213167 -0.00397848 -0.00639349 -0.00182039 0.00723379 0.018805 0.0304202 0.0386592 0.0437135 0.0446689 0.0409769 0.0357314 0.0316104 0.0303727 0.0313595 0.0320285 0.0277093 0.0190503 0.0131069 0.0139307 0.0170716 0.0184124 0.0191523 0.0193725 0.0193375 0.0190414 0.0185702 0.0176083 0.0162844 0.0146401 0.0124473 0.00954329 0.00604442 0.00223376 0.000455499 0.00306295 0.00945303 0.0195506 0.0303784 0.0366362 0.0393724 0.0389056 0.035882 0.0322794 0.0297372 0.0286992 0.029098 0.0251369 0.0201539 0.0186781 0.0151911 0.0145511 0.0170108 0.0185125 0.0194839 0.0197642 0.0196803 0.0192714 0.0189564 0.0179455 0.0166909 0.0152748 0.0135934 0.0117043 0.00964605 0.00772141 0.00689989 0.00867658 0.0128589 0.0192596 0.026198 0.030424 0.0325038 0.0322724 0.0304078 0.0280293 0.0255896 0.0238831 0.0205069 0.015244 0.0157883 0.0217005 0.0257963 0.0248152 0.0219216 0.0215886 0.0211956 0.0209677 0.0204541 0.0198106 0.0193359 0.018365 0.017244 0.0160617 0.0147736 0.0135093 0.0123111 0.0114275 0.0112625 0.0125825 0.0152319 0.0190847 0.0232726 0.0259476 0.0274037 0.0274079 0.0263729 0.0245678 0.0222898 0.0179169 0.0136552 0.0123921 0.0156476 0.0223722 0.0277769 0.0272314 0.0238446 0.0228559 0.0220922 0.0216154 0.020956 0.02022 0.0196953 0.0187768 0.0177929 0.0168198 0.0158272 0.014949 0.0142098 0.0138177 0.0139157 0.0148932 0.0166178 0.0189355 0.0214258 0.0230954 0.0240896 0.0241101 0.0234145 0.0218796 0.0198539 0.0151464 0.0122113 0.0127903 0.0161796 0.0225596 0.0269474 0.0267752 0.0247899 0.0239529 0.0229888 0.022291 0.0214407 0.0206054 0.0199042 0.0190725 0.0182316 0.017441 0.0166778 0.0160497 0.0155711 0.0153939 0.0155667 0.0162826 0.017431 0.0188901 0.0204336 0.0214976 0.0221634 0.0222066 0.0218085 0.0209507 0.0197861 0.0182699 0.0165389 0.0137366 0.0158249 0.0238347 0.0286641 0.0281828 0.0261773 0.0248102 0.0235816 0.0225956 0.0216429 0.0207734 0.0199747 0.0192423 0.0185318 0.0178899 0.0172993 0.0168399 0.0165158 0.0164338 0.0166035 0.0171216 0.0179075 0.0188597 0.01985 0.0205462 0.0209957 0.0210209 0.0207957 0.0203125 0.0198785 0.0199553 0.02019 0.0175885 0.0173746 0.022874 0.0243002 0.0237658 0.0247043 0.024082 0.0233349 0.0224357 0.0215691 0.0207606 0.0199274 0.0193022 0.0187095 0.0181868 0.0177231 0.0173773 0.0171499 0.0171127 0.0172627 0.0176481 0.0182109 0.0188751 0.0195582 0.0200596 0.0203984 0.0204723 0.0203885 0.0202761 0.0202243 0.0212251 0.022509 0.0251944 0.0262014 0.0224424 0.0209621 0.0227902 0.0239767 0.0236184 0.0229155 0.0220896 0.0213195 0.020606 0.0198078 0.0192805 0.0187854 0.0183535 0.0179794 0.0177081 0.0175394 0.0175234 0.0176542 0.0179569 0.0183911 0.0188991 0.0194235 0.0198355 0.0201346 0.0202482 0.0202358 0.0202043 0.0201428 0.0208602 0.0216366 0.024971 0.0263221 0.0226201 0.0216535 0.0229708 0.0233032 0.0228649 0.022272 0.021604 0.0209744 0.0203776 0.0196568 0.0192136 0.0187953 0.018429 0.0181136 0.0178865 0.0177492 0.0177405 0.017857 0.0181142 0.0184848 0.0189237 0.0193862 0.0197852 0.0201049 0.0203004 0.020394 0.0204813 0.020509 0.0209969 0.0214013 0.0229645 0.0237163 0.0224962 0.0222957 0.0225829 0.0225363 0.0221156 0.0216434 0.0211178 0.0206161 0.0201284 0.0195006 0.0191182 0.0187525 0.0184275 0.0181443 0.0179366 0.0178084 0.0177958 0.017901 0.0181386 0.0184927 0.0189225 0.0193891 0.0198237 0.0201977 0.0204767 0.0206593 0.0208146 0.0208862 0.0212269 0.021451 0.0223103 0.02276 0.0221424 0.0220155 0.0219946 0.0218441 0.0214991 0.0211302 0.0207141 0.0203069 0.0199002 0.0193564 0.0190127 0.0186759 0.0183681 0.0180898 0.0178761 0.017733 0.0177027 0.017795 0.0180318 0.0184083 0.0188786 0.0194035 0.019915 0.0203711 0.0207416 0.0210147 0.0212364 0.021366 0.0216057 0.0217342 0.0220946 0.0222519 0.0219509 0.0218112 0.0216265 0.0214097 0.021087 0.0207633 0.0204084 0.0200603 0.019708 0.0192196 0.0188934 0.0185619 0.0182463 0.0179436 0.0176949 0.0175076 0.0174404 0.0175136 0.0177669 0.0182104 0.0187778 0.0194225 0.0200585 0.0206244 0.021087 0.0214329 0.0216941 0.0218511 0.0220257 0.0220916 0.0222323 0.0222255 0.0219517 0.021727 0.0214461 0.0211664 0.0208352 0.0205189 0.0201893 0.0198695 0.0195462 
        </DataArray>
        <DataArray Name="vy" NumberOfComponents="1" type="Float32" format="ascii">
0.0128055 0.0127251 0.0126506 0.0125572 0.0124405 0.0122502 0.0119953 0.0116069 0.0111625 0.010618 0.0101666 0.009839 0.00970839 0.00976575 0.00999063 0.0102888 0.0106432 0.0110039 0.0113584 0.0117406 0.0120503 0.0124354 0.0126145 0.0129011 0.0130854 0.0132224 0.013251 0.0132316 0.013166 0.0130791 0.0129849 0.0128902 0.0131307 0.0130746 0.0130263 0.0129494 0.0128314 0.0125982 0.012255 0.0116887 0.0110149 0.0101385 0.00941828 0.008914 0.00873707 0.00887366 0.00927974 0.00975728 0.0102927 0.010788 0.0112505 0.0117087 0.0121092 0.0125635 0.0128879 0.0132579 0.0134824 0.0136189 0.0136308 0.0135819 0.0134906 0.0133857 0.0132859 0.0131979 0.0134777 0.0134685 0.0134758 0.0134499 0.0133575 0.0131019 0.0126595 0.0118681 0.0108594 0.00947845 0.00834699 0.00760052 0.00738673 0.0076865 0.00840547 0.00917106 0.00997221 0.0106388 0.0112199 0.0117511 0.0122283 0.0127612 0.0132104 0.0137029 0.0140045 0.0141411 0.0141138 0.0140044 0.0138584 0.0137144 0.0135977 0.0135164 0.0138431 0.0139241 0.0140341 0.0141108 0.014091 0.0138646 0.0133532 0.012314 0.0108434 0.00857619 0.0067094 0.00556314 0.00530003 0.00594722 0.00729827 0.00855569 0.0097739 0.0106605 0.0113728 0.0119702 0.0125211 0.013144 0.0137201 0.0143473 0.0146934 0.0147672 0.0146318 0.0144138 0.0141873 0.0139983 0.0138735 0.0138209 0.0142504 0.0144639 0.0147272 0.0149718 0.015089 0.0149888 0.0144443 0.0131332 0.0109349 0.00725488 0.0042044 0.00246202 0.00220963 0.00352705 0.00598287 0.00808788 0.00992777 0.0110421 0.0117987 0.0123351 0.0128503 0.0134872 0.0142045 0.0151135 0.0156416 0.0156466 0.01534 0.0149432 0.0145795 0.0143106 0.0141622 0.0141438 0.0146472 0.0150586 0.0155462 0.0160667 0.01648 0.0168009 0.0165156 0.0152209 0.0120287 0.00537496 -0.000235977 -0.0030804 -0.00335332 -0.000563742 0.0043786 0.00812811 0.0109646 0.0122593 0.0128493 0.0131313 0.0134994 0.0141403 0.0150065 0.0162912 0.0169272 0.0166995 0.0160344 0.0153599 0.0148232 0.0144828 0.0143409 0.0144025 0.0150362 0.0156927 0.0164904 0.0174602 0.0184628 0.0196574 0.0198712 0.0185723 0.0135217 0.0023882 -0.0066578 -0.0111171 -0.0113522 -0.00639715 0.00226394 0.00885738 0.0134479 0.0149308 0.0148848 0.0143312 0.0140531 0.0142238 0.0152338 0.017464 0.0188311 0.0183688 0.0171093 0.0159682 0.0151336 0.0146565 0.0144918 0.0146319 0.0152704 0.0162265 0.0174388 0.0191226 0.0212137 0.0240906 0.0254043 0.0256387 0.0182744 -0.00212299 -0.0183936 -0.0246332 -0.0249035 -0.0163166 -0.000510426 0.0109555 0.0182762 0.0200308 0.0186534 0.0165352 0.0150868 0.0146953 0.0156611 0.0192211 0.0213745 0.0203467 0.0180303 0.016247 0.0151064 0.014536 0.014401 0.0146667 0.0152996 0.0165777 0.0183551 0.021089 0.0248197 0.0295667 0.0305709 0.0290871 0.0169845 -0.0108165 -0.027117 -0.0315759 -0.0316312 -0.0237175 -0.00657991 0.00947295 0.022687 0.0270436 0.0244992 0.020108 0.0161828 0.0132028 0.0137731 0.0197775 0.0246554 0.0236154 0.0194934 0.0166663 0.0150404 0.0143018 0.0141528 0.0145103 0.0148811 0.016383 0.0186032 0.0220812 0.0267882 0.0306422 0.0275741 0.0245182 0.00807031 -0.0151306 -0.0242242 -0.0258748 -0.0262829 -0.0232876 -0.0139171 0.00185661 0.0219986 0.0319362 0.0301318 0.0239823 0.0179759 0.0160278 0.0153891 0.0207237 0.025461 0.0241623 0.0191286 0.0158007 0.0142231 0.0135546 0.0135026 0.0139584 0.0139024 0.0154093 0.0177409 0.0213303 0.0259989 0.0276984 0.0195333 0.0181694 0.00309202 -0.0109723 -0.0156101 -0.0166798 -0.0175619 -0.0175479 -0.0145285 -0.00426376 0.0174916 0.0329259 0.0352027 0.0312937 0.0246715 0.0190157 0.0151212 0.0176255 0.0194722 0.0205527 0.0165941 0.0138128 0.0127777 0.0123875 0.0124785 0.012974 0.0123191 0.0134997 0.0153548 0.018155 0.0213634 0.0221304 0.0144294 0.0134099 0.00344663 -0.00383159 -0.00568512 -0.00627367 -0.00712825 -0.00838663 -0.00847892 -0.0041551 0.012264 0.0272703 0.0334403 0.0314114 0.0258334 0.0243301 0.020961 0.0206926 0.0168595 0.0118289 0.0104858 0.0105927 0.0107095 0.0108815 0.0111376 0.0115789 0.0102646 0.0108003 0.0116805 0.0128348 0.0144269 0.0162561 0.0115418 0.0109837 0.0079364 0.00532173 0.00426779 0.00349383 0.00251983 0.00116875 0.000161501 0.00167576 0.0107035 0.0199942 0.0259203 0.0253793 0.024607 0.0306685 0.0226491 0.0173132 0.0162952 0.00744488 0.00709627 0.00851411 0.00916312 0.00951125 0.00971631 0.00992383 0.00809976 0.00782774 0.00757762 0.00680443 0.00715787 0.0107021 0.00865328 0.0106456 0.014469 0.0147087 0.0139027 0.0129384 0.0119945 0.010883 0.00989841 0.00815457 0.00958253 0.0144047 0.0190382 0.0207024 0.0227441 0.025854 0.0174046 0.0115455 0.0132827 0.00941975 0.00871929 0.00875656 0.00879684 0.00868939 0.00852432 0.00830023 0.00604648 0.00502143 0.00354744 0.000944086 -0.00153135 0.000131535 0.00411997 0.013786 0.0237274 0.025364 0.0240709 0.022564 0.0213184 0.0202318 0.0189118 0.0128327 0.0061292 0.00983887 0.0118816 0.013516 0.0157626 0.0191431 0.0174544 0.0149705 0.0128233 0.00982902 0.0090663 0.00863189 0.00829766 0.00786571 0.00738026 0.00677002 0.00452374 0.00304143 0.000907051 -0.00256976 -0.00703476 -0.00795299 -0.00070429 0.0119302 0.0291989 0.0348438 0.0345151 0.0332033 0.0318149 0.0307881 0.0288815 0.0202479 0.00458696 0.00048652 0.000267426 0.00553646 0.0102671 0.0142933 0.0144794 0.0139166 0.0127018 0.0109386 0.00990908 0.00897779 0.00817843 0.00736749 0.0065549 0.00562081 0.00362917 0.0020223 -0.000211062 -0.00369243 -0.00861522 -0.0115794 -0.00809789 0.00406657 0.0310974 0.0428516 0.0443905 0.0439966 0.0420386 0.0394548 0.0341227 0.0214515 0.00159202 -0.00826692 -0.00763064 0.000262992 0.00664711 0.0116517 0.0141069 0.014681 0.0134551 0.0116785 0.0103358 0.00906067 0.00796908 0.00693803 0.00595178 0.00487249 0.00337812 0.00192407 -2.83608e-06 -0.00281613 -0.00706885 -0.0110195 -0.0114001 -0.00132265 0.0258697 0.0440943 0.0515592 0.0537501 0.0499704 0.0423564 0.0305044 0.0126388 -0.00493646 -0.0100101 -0.00667119 9.45605e-05 0.00582791 0.0106007 0.0148879 0.0162606 0.0143928 0.0122987 0.0107063 0.00918914 0.00789193 0.00672576 0.00566572 0.00458095 0.00366778 0.00258025 0.00129997 -0.000340543 -0.00264293 -0.00498984 -0.00524271 -0.00010764 0.017211 0.0360807 0.0502881 0.0556863 0.0499908 0.0362043 0.0217653 0.00644466 -0.0043524 -0.00674378 -0.00360508 0.00129749 0.00591475 0.0113118 0.0176483 0.0194876 0.0161511 0.0122684 0.0103883 0.00886603 0.00758861 0.00650795 0.00555596 0.00463945 0.00429605 0.0035839 0.00284295 0.00211731 0.00127944 0.000661916 0.00137844 0.00506094 0.0156464 0.0276382 0.0398488 0.0454195 0.0404034 0.0275483 0.0164248 0.00651037 0.000458291 -0.000989505 0.000332949 0.00263816 0.00498167 0.0110636 0.0232551 0.0261761 0.0177307 0.0112817 0.00963559 0.00852137 0.00743192 0.00649488 0.00570092 0.00499935 0.00508292 0.00471897 0.00439799 0.00424671 0.00426506 0.00466469 0.00593508 0.0087586 0.0149725 0.0225018 0.0293778 0.0329072 0.0299724 0.022657 0.0156002 0.00881238 0.00460528 0.0024478 0.00189488 0.00162452 0.00435896 0.0151099 0.0308102 0.0338756 0.021526 0.00817032 0.00576675 0.00664221 0.00651674 0.00624665 0.00584062 0.00547438 0.00598591 0.00587553 0.00582355 0.00597235 0.00635104 0.00714515 0.00854121 0.0108004 0.01463 0.0189835 0.0227916 0.0247569 0.0230141 0.0186883 0.0143888 0.0100712 0.00718102 0.00508909 0.00377654 0.00281046 0.00880376 0.0199913 0.029896 0.03108 0.0220658 0.0092656 0.00558105 0.00612292 0.00628941 0.00636904 0.00625398 0.006138 0.00693333 0.00696985 0.00706618 0.00734131 0.00781448 0.00864526 0.00986146 0.0116122 0.0140028 0.016654 0.0186936 0.0197296 0.0187202 0.0163257 0.0136815 0.0108797 0.00884981 0.00734322 0.0064052 0.00690432 0.0129869 0.0196519 0.0240283 0.0237289 0.0184299 0.0124735 0.00895027 0.00749975 0.00702373 0.00696131 0.00694348 0.00694504 0.00785897 0.00797068 0.00813387 0.00844113 0.00889612 0.00962175 0.0105885 0.0118873 0.0134334 0.0150666 0.0162057 0.0167652 0.0161 0.0146456 0.0129595 0.0111969 0.00996274 0.00932354 0.00991755 0.0119711 0.0137277 0.0183741 0.0197139 0.0191866 0.0170282 0.0131237 0.00959043 0.00802636 0.0075387 0.00756208 0.00768212 0.00778282 0.00875419 0.00886396 0.0090252 0.009303 0.00968755 0.0102681 0.0109893 0.0119254 0.0129292 0.0139696 0.014629 0.0149417 0.0145216 0.0136548 0.012599 0.0115406 0.010914 0.0109545 0.0124448 0.0151082 0.0147772 0.0161694 0.0143033 0.0131108 0.014162 0.0148134 0.0119059 0.00944277 0.00868038 0.00853207 0.00860936 0.00868152 0.00956403 0.00964225 0.00976955 0.00999 0.010289 0.0107252 0.0112425 0.0118931 0.0125446 0.0132038 0.0135931 0.0137697 0.0134919 0.0129507 0.0122769 0.0116242 0.0113029 0.0115074 0.0129065 0.0154765 0.0181083 0.018958 0.0094898 0.00592048 0.0130977 0.0154671 0.0127972 0.0104106 0.0096437 0.00946767 0.00949133 0.00952168 0.0102709 0.0103024 0.0103799 0.0105318 0.0107427 0.011049 0.0114012 0.0118357 0.0122484 0.0126606 0.012891 0.012994 0.012823 0.0124993 0.0120921 0.0117022 0.0115565 0.0117321 0.0127339 0.0144727 0.0173346 0.0189125 0.0095548 0.00628323 0.0132952 0.013962 0.0119515 0.0108193 0.0104199 0.0103111 0.0102929 0.0102736 0.0108706 0.0108592 0.0108877 0.0109727 0.0111016 0.0112937 0.0115114 0.0117755 0.0120154 0.0122503 0.0123715 0.0124211 0.0123128 0.0121225 0.0118848 0.0116619 0.0115868 0.0117048 0.0122186 0.0131545 0.0142955 0.015285 0.0118365 0.0109133 0.0126734 0.0127693 0.0119279 0.0113997 0.0111546 0.0110386 0.0109733 0.0109122 0.0113675 0.011322 0.0113087 0.011335 0.011392 0.0114856 0.0115912 0.0117164 0.0118208 0.0119178 0.0119525 0.0119563 0.0118844 0.0117826 0.011669 0.0115744 0.011583 0.0117125 0.0120744 0.0127014 0.013272 0.0140213 0.0120768 0.0115452 0.0124652 0.0124521 0.0121106 0.0118723 0.0117195 0.0116111 0.0115235 0.0114371 0.0117879 0.0117197 0.0116743 0.0116518 0.0116469 0.0116544 0.0116617 0.0116633 0.0116472 0.0116179 0.0115667 0.0115168 0.0114545 0.0114059 0.0113779 0.0113784 0.0114468 0.0115869 0.0118305 0.0122299 0.0125009 0.0129652 0.0122868 0.0122347 0.0124927 0.0125188 0.0123748 0.0122594 0.0121543 0.0120589 0.0119666 0.0118717 0.0121503 0.0120684 0.0120011 0.0119411 0.011886 0.0118183 0.0117362 0.0116193 0.011483 0.0113211 0.0111724 0.0110559 0.0109847 0.0109712 0.011015 0.0111023 0.011246 0.0114383 0.0116792 0.0120202 0.0122342 0.0126091 0.012307 0.0123968 0.0125738 0.0126611 0.0126309 0.0125865 0.0125148 0.0124308 0.0123387 0.0122409 0.0124844 0.0123982 0.0123203 0.0122353 0.0121418 0.0120078 0.0118401 0.0115971 0.0113249 0.0110002 0.0107246 0.0105175 0.0104206 0.0104356 0.0105548 0.0107331 0.010966 0.011228 0.0115058 0.0118389 0.0120801 0.012426 0.0124429 0.0126462 0.0127918 0.0129036 0.0129142 0.0128957 0.0128373 0.0127591 0.0126696 0.0125742 
        </DataArray>
        <DataArray Name="vz" NumberOfComponents="1" type="Float32" format="ascii">
0 0 0 0 0 0 0 0 0 0 0 0 0 0 0 0 0 0 0 0 0 0 0 0 0 0 0 0 0 0 0 0 0 0 0 0 0 0 0 0 0 0 0 0 0 0 0 0 0 0 0 0 0 0 0 0 0 0 0 0 0 0 0 0 0 0 0 0 0 0 0 0 0 0 0 0 0 0 0 0 0 0 0 0 0 0 0 0 0 0 0 0 0 0 0 0 0 0 0 0 0 0 0 0 0 0 0 0 0 0 0 0 0 0 0 0 0 0 0 0 0 0 0 0 0 0 0 0 0 0 0 0 0 0 0 0 0 0 0 0 0 0 0 0 0 0 0 0 0 0 0 0 0 0 0 0 0 0 0 0 0 0 0 0 0 0 0 0 0 0 0 0 0 0 0 0 0 0 0 0 0 0 0 0 0 0 0 0 0 0 0 0 0 0 0 0 0 0 0 0 0 0 0 0 0 0 0 0 0 0 0 0 0 0 0 0 0 0 0 0 0 0 0 0 0 0 0 0 0 0 0 0 0 0 0 0 0 0 0 0 0 0 0 0 0 0 0 0 0 0 0 0 0 0 0 0 0 0 0 0 0 0 0 0 0 0 0 0 0 0 0 0 0 0 0 0 0 0 0 0 0 0 0 0 0 0 0 0 0 0 0 0 0 0 0 0 0 0 0 0 0 0 0 0 0 0 0 0 0 0 0 0 0 0 0 0 0 0 0 0 0 0 0 0 0 0 0 0 0 0 0 0 0 0 0 0 0 0 0 0 0 0 0 0 0 0 0 0 0 0 0 0 0 0 0 0 0 0 0 0 0 0 0 0 0 0 0 0 0 0 0 0 0 0 0 0 0 0 0 0 0 0 0 0 0 0 0 0 0 0 0 0 0 0 0 0 0 0 0 0 0 0 0 0 0 0 0 0 0 0 0 0 0 0 0 0 0 0 0 0 0 0 0 0 0 0 0 0 0 0 0 0 0 0 0 0 0 0 0 0 0 0 0 0 0 0 0 0 0 0 0 0 0 0 0 0 0 0 0 0 0 0 0 0 0 0 0 0 0 0 0 0 0 0 0 0 0 0 0 0 0 0 0 0 0 0 0 0 0 0 0 0 0 0 0 0 0 0 0 0 0 0 0 0 0 0 0 0 0 0 0 0 0 0 0 0 0 0 0 0 0 0 0 0 0 0 0 0 0 0 0 0 0 0 0 0 0 0 0 0 0 0 0 0 0 0 0 0 0 0 0 0 0 0 0 0 0 0 0 0 0 0 0 0 0 0 0 0 0 0 0 0 0 0 0 0 0 0 0 0 0 0 0 0 0 0 0 0 0 0 0 0 0 0 0 0 0 0 0 0 0 0 0 0 0 0 0 0 0 0 0 0 0 0 0 0 0 0 0 0 0 0 0 0 0 0 0 0 0 0 0 0 0 0 0 0 0 0 0 0 0 0 0 0 0 0 0 0 0 0 0 0 0 0 0 0 0 0 0 0 0 0 0 0 0 0 0 0 0 0 0 0 0 0 0 0 0 0 0 0 0 0 0 0 0 0 0 0 0 0 0 0 0 0 0 0 0 0 0 0 0 0 0 0 0 0 0 0 0 0 0 0 0 0 0 0 0 0 0 0 0 0 0 0 0 0 0 0 0 0 0 0 0 0 0 0 0 0 0 0 0 0 0 0 0 0 0 0 0 0 0 0 0 0 0 0 0 0 0 0 0 0 0 0 0 0 0 0 0 0 0 0 0 0 0 0 0 0 0 0 0 0 0 0 0 0 0 0 0 0 0 0 0 0 0 0 0 0 0 0 0 0 0 0 0 0 0 0 0 0 0 0 0 0 0 0 0 0 0 0 0 0 0 0 0 0 0 0 0 0 0 0 0 0 0 0 0 0 0 0 0 0 0 0 0 0 0 0 0 0 0 0 0 0 0 0 0 0 0 0 0 0 0 0 0 0 0 0 0 0 0 0 0 0 0 0 0 0 0 0 0 0 0 0 0 0 0 0 0 0 0 0 0 0 0 0 0 0 0 0 0 0 0 0 0 0 0 0 0 0 0 0 0 0 0 0 0 0 0 0 0 0 0 0 0 0 0 0 0 0 0 0 0 0 0 0 0 0 0 0 0 0 0 0 0 0 0 0 0 0 0 0 0 0 0 0 0 0 0 0 0 0 0 0 0 0 0 0 0 0 0 0 0 0 0 0 0 0 0 0 0 0 0 0 0 0 0 0 0 0 0 0 0 0 0 0 0 0 0 0 0 0 0 0 0 0 0 0 0 0 0 0 0 0 0 0 0 0 0 0 0 0 0 0 
        </DataArray>
        <DataArray Name="p" NumberOfComponents="1" type="Float32" format="ascii">