<?xml version="1.0"?>
<VTKFile type="StructuredGrid" version="0.1" byte_order="LittleEndian">
  <StructuredGrid WholeExtent="0 32 0 32 0 1">
    <Piece Extent="0 32 0 32 0 1">
      <PointData>
      </PointData>
      <CellData>
        <DataArray Name="vx" NumberOfComponents="1" type="Float32" format="ascii">
0.0280065 0.0298064 0.0314615 0.0325011 0.032942 0.0316816 0.0289222 0.0250296 0.0208277 0.0166031 0.0129804 0.0105405 0.00989964 0.0105574 0.0115929 0.0131158 0.0142096 0.0152058 0.0155637 0.0157076 0.0156273 0.0156206 0.0159086 0.0163575 0.0170818 0.0179536 0.0189957 0.0201726 0.021473 0.0229279 0.0244922 0.0262246 0.0288523 0.03133 0.0338928 0.0357804 0.0371611 0.0358526 0.0319897 0.026464 0.0206322 0.0146821 0.00953863 0.00619212 0.00576497 0.00734586 0.00911389 0.0115411 0.0131839 0.0147509 0.0154107 0.01587 0.0159621 0.0159621 0.0162948 0.016668 0.017296 0.0180541 0.0189767 0.0200751 0.0213369 0.0228449 0.0245558 0.0265984 0.0295566 0.0328884 0.0367488 0.0399826 0.0431958 0.0421336 0.0364796 0.0283839 0.0204983 0.0122583 0.00433767 -0.000502579 -5.21441e-05 0.00340512 0.00639536 0.0102099 0.0125412 0.0148282 0.015682 0.0163218 0.0163654 0.0161641 0.0165532 0.0168089 0.0173625 0.0179965 0.018798 0.0197997 0.0210027 0.0225405 0.0243844 0.0267526 0.0298419 0.0342907 0.0401012 0.045663 0.0524819 0.052431 0.0431764 0.030686 0.0198968 0.00763225 -0.00397353 -0.0106433 -0.00859922 -0.00133389 0.00357177 0.00940861 0.0125505 0.0156425 0.0164186 0.0171366 0.0168937 0.0161862 0.0167006 0.0167828 0.017278 0.0177589 0.0184134 0.0192646 0.0203449 0.0218345 0.023745 0.02641 0.0292118 0.0347714 0.0430538 0.0523228 0.0663926 0.0682197 0.0516464 0.0332976 0.0181468 -0.000389262 -0.0186096 -0.0284045 -0.0209103 -0.00646644 0.00130872 0.00971295 0.0136852 0.0177453 0.018157 0.0185766 0.0174369 0.0157854 0.0166882 0.0166108 0.0170955 0.0173917 0.0178608 0.0184916 0.0193649 0.0206793 0.0225099 0.0252816 0.026925 0.0333512 0.044456 0.0591353 0.0854947 0.0821405 0.0520691 0.0350268 0.0193178 0.00550704 -0.0210123 -0.0491796 -0.038309 -0.0106686 0.000984044 0.012118 0.0167845 0.0215177 0.0207893 0.0206925 0.0176914 0.0144567 0.0165654 0.0163574 0.0168192 0.016864 0.0170751 0.0173669 0.0178873 0.018805 0.0202984 0.0228224 0.0221408 0.0281808 0.0403421 0.0602604 0.0883949 0.0757544 0.039419 0.0316259 0.0227403 0.0139983 0.00685521 -0.0334879 -0.0407045 -0.00706918 0.00590871 0.0178951 0.0228943 0.0293633 0.0282987 0.0239069 0.0155332 0.0113476 0.0158538 0.0161338 0.0166322 0.0163816 0.0162437 0.0160843 0.0161123 0.0163729 0.017161 0.0187565 0.0136601 0.0160421 0.0236354 0.033679 0.0327769 0.0239556 0.0163745 0.02098 0.0250364 0.0277321 0.0412869 0.0280041 0.0162671 0.0143223 0.0233532 0.0292109 0.0331513 0.0383442 0.0325637 0.0237953 0.0209937 0.0175956 0.0172353 0.0170221 0.0165968 0.0158544 0.0152266 0.0144883 0.0138621 0.0131536 0.0127832 0.0125007 0.00232354 -0.00356879 -0.00662511 -0.0329619 -0.0508191 -0.0323374 -0.0104052 0.00832834 0.0250676 0.0407582 0.063854 0.0842419 0.0889933 0.0552232 0.0462444 0.0408105 0.0375794 0.0310036 0.024244 0.024836 0.0323747 0.0319442 0.0241319 0.0201324 0.0175781 0.0157637 0.0144454 0.0130467 0.0117125 0.00986052 0.00797923 0.00484317 -0.00907508 -0.0228523 -0.0431333 -0.0880029 -0.0997617 -0.0617407 -0.0295472 -0.000547141 0.0237341 0.0484762 0.075274 0.10687 0.134152 0.107362 0.0731381 0.0534664 0.0397788 0.0242475 0.0145775 0.0221679 0.0346372 0.0327155 0.0247005 0.0201134 0.0171305 0.0149613 0.0133823 0.0115325 0.0096434 0.0068039 0.00351972 -0.00214993 -0.0156573 -0.0294022 -0.0510801 -0.0565378 -0.0819878 -0.0797863 -0.0365335 -0.00672162 0.0235032 0.0529029 0.0855727 0.123319 0.126022 0.10386 0.0890183 0.0673537 0.0517961 0.0393168 0.0295515 0.0271636 0.0272755 0.0230703 0.0199875 0.0171784 0.0154111 0.0136282 0.0123306 0.0104125 0.00830525 0.00490747 0.000639299 -0.00629427 -0.0122285 -0.018902 -0.031521 -0.00496786 -0.0496036 -0.0787102 -0.0309721 -0.00730449 0.0237597 0.0513918 0.0828825 0.117509 0.0875081 0.0632929 0.0766685 0.0639319 0.0567998 0.0489671 0.0487534 0.0365394 0.0198471 0.0176246 0.0150975 0.0140984 0.0133873 0.0123008 0.011541 0.00987789 0.00801253 0.0048716 0.0010348 -0.00456289 -0.014695 -0.0296177 -0.0507132 -0.074891 -0.0963059 -0.0772201 -0.0376831 -0.00613532 0.0218314 0.0516056 0.0790002 0.115768 0.124315 0.105148 0.0895401 0.0726261 0.0633754 0.0545156 0.0521569 0.0367436 0.0177462 0.0145152 0.0116487 0.011162 0.0115387 0.0111447 0.0111443 0.00989811 0.00838518 0.00530499 0.00130647 -0.00554416 -0.00562837 -0.018223 -0.0350557 -0.0826416 -0.0974145 -0.0586112 -0.0278317 -4.02552e-05 0.0220243 0.0456242 0.0688845 0.0998572 0.127862 0.102409 0.0759098 0.0645735 0.0613778 0.0580163 0.0545238 0.034843 0.0127441 0.00719333 0.00609941 0.00712247 0.00962654 0.0103702 0.0114757 0.01091 0.0101452 0.00792786 0.00526001 0.000223911 0.00684224 0.00368565 0.00470354 -0.00927048 -0.0264071 -0.0211366 -0.00577641 0.0103473 0.023538 0.0364836 0.0591371 0.0736571 0.0732862 0.0479697 0.0486969 0.0534971 0.0606985 0.0648711 0.0593892 0.0321775 0.00274887 -0.0051013 -0.00205229 0.00210308 0.00764364 0.00990297 0.0122771 0.0125285 0.0126212 0.011522 0.0103708 0.00815087 0.0177497 0.0213763 0.0303926 0.0459517 0.0518066 0.0379082 0.0210178 0.0229927 0.0223688 0.0205362 0.0292875 0.00443364 -0.00965141 0.00886751 0.0240884 0.0416006 0.0579704 0.0808836 0.0868633 0.0326854 -0.0265173 -0.0279976 -0.0119782 -0.00229986 0.00736406 0.0112848 0.0146497 0.015459 0.0160895 0.0158552 0.0159031 0.0160598 0.025663 0.0317384 0.043953 0.0629619 0.0935075 0.0806467 0.0420174 0.032658 0.0189618 0.00554198 -0.0131253 -0.0437593 -0.0414812 -0.00797567 0.00946031 0.035128 0.0601997 0.0922868 0.110286 0.033049 -0.0534881 -0.0508864 -0.0232651 -0.00593111 0.00852283 0.0140086 0.0177986 0.0187103 0.0195124 0.0198232 0.020664 0.0222406 0.0300624 0.0357408 0.0457833 0.0589243 0.0827671 0.0871618 0.0611428 0.0366336 0.0172171 -0.00141479 -0.0324322 -0.0531294 -0.0387697 -0.0184446 -0.00839693 0.000291796 -0.000953259 0.00395675 0.0299541 0.024049 -0.000328936 0.00378175 0.0125095 0.0103212 0.0181585 0.0215382 0.0234923 0.0235776 0.0237077 0.0238624 0.024715 0.0265662 0.0318877 0.0362645 0.0430166 0.0500913 0.0604358 0.0604316 0.0447576 0.027031 0.0121546 -0.00322059 -0.0235851 -0.0363503 -0.0334404 -0.0305159 -0.0347908 -0.0469564 -0.066121 -0.0913595 -0.0584097 0.0328842 0.0989705 0.132953 0.0955989 0.0584414 0.0426058 0.0359438 0.0316062 0.0287751 0.0272845 0.0268016 0.0273266 0.02896 0.0324707 0.0355031 0.0397777 0.0434594 0.0478729 0.0453858 0.0346467 0.0223131 0.0109589 -0.000134917 -0.0130815 -0.0225716 -0.024703 -0.0277434 -0.0329485 -0.0442194 -0.037785 -0.103514 -0.104532 0.0230182 0.143716 0.143531 0.0814758 0.0827879 0.0576845 0.0463421 0.037375 0.0329015 0.0302802 0.0292094 0.0292491 0.0303612 0.0318738 0.0338431 0.036303 0.0379897 0.0393196 0.0367592 0.0298111 0.0209397 0.0118767 0.00288662 -0.00700078 -0.0156035 -0.022376 -0.0324083 -0.0482585 -0.0780439 -0.0958571 -0.140042 -0.122586 -0.0082603 0.118854 0.133186 0.0845292 0.0885726 0.0639971 0.049279 0.0390153 0.0339371 0.031031 0.0298102 0.0296578 0.0304209 0.0309996 0.0321982 0.0335029 0.0340661 0.0340061 0.0314636 0.0264287 0.0201312 0.0134284 0.0068201 0.000135367 -0.00539392 -0.00985966 -0.0149846 -0.0245103 -0.0480875 -0.0846852 -0.100657 -0.063794 -0.0020807 0.0651841 0.109316 0.0890068 0.0706786 0.0506515 0.0416098 0.0354678 0.0322335 0.0303417 0.0295564 0.02949 0.0300387 0.0297438 0.0304971 0.0311313 0.031128 0.0304823 0.0282846 0.0246208 0.0200247 0.0150904 0.0102858 0.00577019 0.00254454 0.000849898 0.00203593 0.0057551 0.0173747 0.0234766 0.042791 0.039785 0.00818496 -0.0127331 0.00608915 0.0221576 0.0223484 0.0271493 0.0285953 0.0288058 0.028415 0.0281623 0.0281574 0.0284483 0.0290166 0.0286097 0.0290995 0.0293617 0.0290817 0.0282321 0.0263495 0.023565 0.0201823 0.0166148 0.0132899 0.0104707 0.00903332 0.00905761 0.0124279 0.0186862 0.0344054 0.0557797 0.0861407 0.0817215 0.00574106 -0.057138 -0.0487045 -0.0154376 0.00193984 0.0152033 0.0206723 0.0238505 0.0251781 0.0261122 0.0267502 0.0273747 0.0280058 0.0275405 0.0279254 0.0280298 0.0276706 0.0268232 0.0252669 0.0231256 0.0205826 0.017964 0.0156006 0.01378 0.0131486 0.0138057 0.0172032 0.0226884 0.0340412 0.0482301 0.0642694 0.0566998 0.0112693 -0.0304579 -0.0308401 -0.0110172 0.00143456 0.0118677 0.0170237 0.0208111 0.0227987 0.0243254 0.0253583 0.0262315 0.0269565 0.0267333 0.0270903 0.0271454 0.0267906 0.0260112 0.0247049 0.0229884 0.0209995 0.0190081 0.0172803 0.0160916 0.0159131 0.0167858 0.0196951 0.0237941 0.0310179 0.038325 0.0445481 0.0368855 0.014375 -0.00777321 -0.0125335 -0.00375733 0.00331285 0.0108047 0.0151522 0.0188823 0.0211349 0.0229726 0.0242638 0.0253154 0.0261293 0.0261617 0.0265519 0.026635 0.0263404 0.0256594 0.024544 0.0231005 0.0214401 0.0197951 0.0183707 0.0174161 0.0172338 0.0178639 0.0198603 0.0224887 0.0266969 0.0300549 0.0321785 0.0277959 0.0148482 0.00258853 0.000139876 0.00352887 0.00720688 0.0119808 0.0151651 0.0182408 0.0203232 0.0221354 0.0234955 0.0246265 0.0255092 0.0258738 0.0263359 0.0264906 0.0262781 0.0256885 0.0246865 0.023373 0.0218483 0.0203302 0.0189946 0.01808 0.0177896 0.0181755 0.0195104 0.0212122 0.0236755 0.0252214 0.025608 0.0223509 0.0155107 0.00875976 0.00651299 0.00775492 0.00978303 0.0129579 0.0154041 0.0179517 0.019872 0.0216153 0.0230084 0.0241955 0.0251498 0.0258481 0.0264238 0.0266943 0.0265875 0.0260861 0.0251317 0.0238263 0.0222654 0.0206727 0.0192142 0.018133 0.0175751 0.0176204 0.0183612 0.0193635 0.0207786 0.0214817 0.02147 0.0194968 0.0156659 0.0119217 0.0105668 0.0110351 0.0122138 0.0142951 0.0161158 0.0181308 0.0198104 0.021408 0.0227788 0.0239954 0.025026 0.02608 0.0268219 0.0272628 0.0272951 0.0268884 0.0259162 0.0244915 0.0227171 0.0208569 0.0190933 0.0177069 0.0168356 0.0166085 0.0170045 0.0176674 0.0186056 0.0190421 0.0189916 0.0177867 0.015737 0.0136693 0.0127895 0.0129987 0.013785 0.0152507 0.0166995 0.0183545 0.0198642 0.0213534 0.0227188 0.0239827 0.025119 0.0265429 0.027522 0.0282137 0.0284437 0.0281723 0.0271302 0.0254559 0.023273 0.0209307 0.0186471 0.0167764 0.0155015 0.0150304 0.0152452 0.0157771 0.0165888 0.0170529 0.017242 0.0166984 0.0157106 0.0146636 0.0142254 0.0144182 0.0150167 0.0160999 0.0172759 0.0186497 0.0200104 0.0214063 0.0227767 0.0241085 0.0253888 0.0272054 0.0285296 0.0296085 0.0301538 0.030127 0.0289722 0.0268649 0.0240039 0.0209009 0.017828 0.0152665 0.0134953 0.0128685 0.0131477 0.0138034 0.0148162 0.0155169 0.0160481 0.015995 0.0156757 0.0152288 0.0150644 0.0152964 0.0158091 0.0166752 0.0176805 0.0188669 0.0201262 0.0214654 0.0228688 0.0243024 0.0257809 
        </DataArray>
        <DataArray Name="vy" NumberOfComponents="1" type="Float32" format="ascii">
0.0072103 0.00825242 0.0100105 0.0125378 0.0156359 0.0195704 0.0225225 0.0247015 0.02499 0.0244357 0.0218371 0.0187112 0.0145251 0.0116217 0.00871708 0.00693474 0.0054407 0.00460113 0.00414313 0.00401647 0.00433742 0.00475039 0.00523498 0.00574918 0.00609387 0.00637013 0.00646764 0.00647996 0.00641661 0.00635149 0.00639273 0.00660503 0.00519572 0.00625324 0.00827734 0.0115417 0.0157532 0.0217864 0.0262308 0.0294023 0.0296502 0.0290933 0.0252908 0.0204693 0.014225 0.0105573 0.00705873 0.00536358 0.0041518 0.00369376 0.00377422 0.00381287 0.00438937 0.00455261 0.00493329 0.00519747 0.00538464 0.00547816 0.00542768 0.00528038 0.00505484 0.0048101 0.00466751 0.0047024 0.00244712 0.00329463 0.00540854 0.00950888 0.015283 0.0247967 0.0319545 0.0363893 0.0366682 0.0360183 0.0299555 0.022743 0.0130766 0.00850022 0.00436812 0.00295833 0.00223676 0.00232137 0.00312913 0.00333767 0.00440764 0.00428135 0.00463612 0.00468832 0.00475119 0.00467032 0.00445614 0.00410699 0.00364567 0.00311496 0.00263537 0.00230416 -0.000996425 -0.000779621 0.000882615 0.00552418 0.0132063 0.0286727 0.0398743 0.045581 0.0452117 0.0455597 0.0379312 0.0250208 0.00994104 0.00442272 1.52742e-05 -0.000671988 -0.000472025 0.000459245 0.00244003 0.00297643 0.00479158 0.00414138 0.00444704 0.00428258 0.0042497 0.00401563 0.00364485 0.0030785 0.00233666 0.00144057 0.000475209 -0.000434259 -0.00555232 -0.00667002 -0.00650128 -0.00224938 0.00751166 0.033118 0.0549144 0.0604552 0.0598098 0.0616078 0.0466824 0.0278997 0.00313876 -0.00318861 -0.00668433 -0.00585079 -0.00396559 -0.00169694 0.00176196 0.00262049 0.00579147 0.00404694 0.00428153 0.00395224 0.00386124 0.00349362 0.00296625 0.00215536 0.00106869 -0.000301922 -0.00196102 -0.00374884 -0.0106714 -0.0140991 -0.0172894 -0.0163223 -0.00277245 0.0431707 0.0757095 0.0776987 0.0766731 0.0823602 0.0683894 0.0264004 -0.012491 -0.0170511 -0.0165065 -0.0128497 -0.00847603 -0.00417648 0.00195177 0.00343463 0.00801794 0.0043611 0.00404191 0.0036567 0.00359149 0.00319524 0.00258123 0.0015779 0.000173699 -0.00167532 -0.00413514 -0.00702605 -0.0163662 -0.0234483 -0.0336958 -0.0410781 -0.0205913 0.0710595 0.100126 0.0933045 0.0901384 0.0990247 0.10124 0.0456115 -0.0362458 -0.0421835 -0.0297663 -0.0214355 -0.0132674 -0.0059702 0.0017092 0.0065546 0.0133243 0.00379784 0.00281927 0.00338135 0.00350078 0.00316608 0.00249081 0.00131727 -0.000387039 -0.00270547 -0.00603481 -0.0102119 -0.0205523 -0.0314785 -0.0509581 -0.0605799 -0.0241683 0.0973884 0.112429 0.0978593 0.0933602 0.0998394 0.112708 0.076004 -0.041754 -0.0612724 -0.0419035 -0.0294763 -0.0198772 -0.00900299 0.00811404 0.0147551 0.020213 0.00326017 0.000392939 0.0026008 0.00354276 0.00351258 0.00292378 0.00171269 -0.000114457 -0.00268895 -0.00663227 -0.0118727 -0.0199398 -0.0326731 -0.0517922 -0.0492444 -0.0116675 0.0928065 0.0998442 0.0867771 0.0828107 0.0851755 0.0983646 0.0742142 -0.0196643 -0.05245 -0.0441707 -0.0314566 -0.0218276 -0.00723966 0.0172354 0.017439 0.0209143 0.00727414 0.00336645 0.00407236 0.0047682 0.00451579 0.00388075 0.00267104 0.00092635 -0.00154465 -0.00540836 -0.0107683 -0.0130757 -0.0227578 -0.0248987 -0.0167892 -0.0209965 0.0588272 0.0719454 0.063845 0.0616937 0.0623567 0.0700563 0.0509087 -0.00984961 -0.0207602 -0.0276402 -0.0214382 -0.0101247 0.00403429 0.0161332 0.00548151 0.0125674 0.012786 0.0113824 0.00880296 0.00777068 0.00655242 0.0056387 0.00443496 0.00300389 0.00102262 -0.00195909 -0.00634285 0.00147922 0.00166243 0.014212 0.00510339 -0.0340008 0.018234 0.0374641 0.0322676 0.0327556 0.0330713 0.035422 0.0167538 -0.0195966 0.00969171 0.0083267 0.00211208 0.00775449 0.018038 0.0205075 -0.00353195 0.00984343 0.017712 0.0157828 0.0120178 0.00998769 0.00825803 0.00733232 0.00641512 0.00567826 0.00478185 0.00374552 0.00231407 0.00976884 0.0103991 0.00702637 0.00340972 0.0144435 0.0055611 0.00236875 0.00294827 0.00311946 0.00104057 0.00012774 0.010034 0.0136719 0.0100793 0.0120092 0.0138915 0.0175196 0.024863 0.0277592 0.00750393 0.0172412 0.0205506 0.0173453 0.0135203 0.0114174 0.00962948 0.0089359 0.00844153 0.00842377 0.0085264 0.0088356 0.00924053 0.018423 0.0201703 0.00736201 0.0126899 0.0521443 -0.00940464 -0.0309134 -0.0260749 -0.0259831 -0.028412 -0.030735 0.00647841 0.0432206 0.0117051 0.0142751 0.0218502 0.024684 0.0279077 0.0327774 0.0262426 0.0272172 0.0226504 0.0186368 0.0137593 0.0116965 0.00997729 0.0097655 0.00991094 0.010794 0.0120375 0.0138315 0.0162105 0.0327505 0.0444066 0.0530214 0.0430911 0.0246352 -0.0575627 -0.0662163 -0.0564112 -0.0537925 -0.0545658 -0.064105 -0.0323321 0.0258223 0.0406606 0.045578 0.0385804 0.0348227 0.03644 0.0442363 0.0432721 0.03931 0.027752 0.0206268 0.0139523 0.011597 0.0100453 0.0103451 0.0111809 0.0129735 0.0154236 0.0191952 0.0244894 0.037451 0.0504067 0.0718258 0.0738901 0.0301205 -0.0815584 -0.0916202 -0.0769707 -0.0730294 -0.0762312 -0.0913496 -0.0527152 0.0408979 0.0666757 0.0514644 0.0367776 0.0311211 0.0349382 0.0544774 0.0678666 0.0530622 0.0294759 0.0179575 0.0101969 0.00836002 0.00792999 0.00924656 0.0111132 0.0137865 0.0170552 0.0216991 0.0276717 0.0364402 0.0466732 0.0639383 0.0741435 0.0411566 -0.0768794 -0.0971639 -0.0833669 -0.0791025 -0.087194 -0.100292 -0.0398262 0.0524167 0.0604628 0.0395816 0.0261658 0.0234999 0.040184 0.0794065 0.0999288 0.0786065 0.0345475 0.0133657 0.00454373 0.00380722 0.00525293 0.00786091 0.0107777 0.0140316 0.017671 0.0223326 0.0279638 0.0319285 0.038335 0.0464293 0.0524444 0.0368852 -0.0441562 -0.0819147 -0.0765398 -0.0718991 -0.0796358 -0.0822685 -0.0113176 0.0367417 0.0344795 0.0191703 0.00388109 -0.0102806 0.00547827 0.101359 0.17674 0.112734 0.0150597 -0.00786204 -0.00847103 -0.0047671 0.000824967 0.00533405 0.00961674 0.0134138 0.017221 0.0214113 0.026026 0.0266266 0.0294332 0.0312188 0.0285361 0.0163966 -0.022073 -0.0545274 -0.0560551 -0.0516435 -0.0557412 -0.0509586 -0.00906217 0.0135063 0.00855137 -0.00580963 -0.0242355 -0.037935 -0.00556337 0.138191 0.254128 0.160313 0.00649798 -0.0359939 -0.0284887 -0.0175996 -0.00499428 0.00283985 0.00873979 0.0129083 0.0165235 0.0198934 0.0231937 0.0224418 0.0231697 0.0222153 0.017212 0.00694976 -0.0180727 -0.0325217 -0.0362853 -0.0337197 -0.0343258 -0.0273075 -0.00847949 0.00585309 0.00636838 0.00182308 0.00255718 -0.0218101 -0.0220677 0.0913518 0.208244 0.141271 0.00383675 -0.0144514 -0.0110003 -0.0139696 -0.00336559 0.00413424 0.00970147 0.0133188 0.0162349 0.0186495 0.0207623 0.0192059 0.0187513 0.0167902 0.012057 0.00478365 -0.00889109 -0.0187575 -0.0229404 -0.0217869 -0.0203198 -0.0146819 -0.00292023 0.00625019 0.00796328 0.00563528 0.00847422 0.00588931 -0.00485206 0.0191394 0.0848965 0.0698974 0.0177467 0.0340593 0.0233116 0.00283572 0.00475075 0.00925738 0.0126218 0.0147215 0.016424 0.0177405 0.0187619 0.0171637 0.0160828 0.0138576 0.00980655 0.00446636 -0.00404976 -0.00956548 -0.0123253 -0.011528 -0.00956679 -0.00436503 0.0038041 0.0126994 0.017821 0.0186329 0.00936968 0.0304846 0.0420408 -0.0344686 -0.0477782 0.016421 0.0674109 0.0392305 0.0193038 0.0196872 0.018642 0.0176815 0.0172092 0.0171302 0.0173134 0.0174877 0.0175559 0.015764 0.0144751 0.0124183 0.0093042 0.00555862 0.000474352 -0.00294742 -0.00473753 -0.00384727 -0.00149991 0.00359725 0.0112863 0.021667 0.0339236 0.0511353 0.060148 0.0650357 0.0208741 -0.117378 -0.165133 -0.0741863 0.0577887 0.0658286 0.0489814 0.0421183 0.0309225 0.024419 0.0207066 0.0188296 0.0178178 0.0171694 0.0166056 0.0149501 0.0136318 0.0118517 0.0094908 0.00686796 0.00371914 0.00174702 0.000847602 0.00179468 0.00402382 0.00825869 0.0143448 0.0226865 0.0332118 0.0490845 0.067172 0.078214 0.0287062 -0.120226 -0.187418 -0.0904359 0.0511138 0.0753448 0.0604085 0.0468159 0.0339247 0.02682 0.0223507 0.0197822 0.0181348 0.0169824 0.0160217 0.0142949 0.0131347 0.011723 0.010033 0.00826567 0.00637472 0.00524706 0.00487935 0.005807 0.00775415 0.0111282 0.015767 0.0217401 0.028744 0.0368796 0.044843 0.0421386 0.00774755 -0.0745483 -0.115143 -0.0594214 0.02513 0.0472242 0.0432628 0.0363148 0.0294013 0.0247761 0.021395 0.0191562 0.0175563 0.0163557 0.0153385 0.0138321 0.0128802 0.0118231 0.0106641 0.00953211 0.00844353 0.00788703 0.0078659 0.00870331 0.0102568 0.0126933 0.015878 0.01958 0.0236277 0.026865 0.0287354 0.0218788 -0.00032243 -0.0417418 -0.0575092 -0.0376856 0.00662814 0.0248649 0.0291864 0.0277426 0.0249228 0.0222344 0.0199536 0.0181937 0.0168153 0.0157084 0.0147565 0.013338 0.0126593 0.0119644 0.0112644 0.0106343 0.0101008 0.00991139 0.0100757 0.0107694 0.0119073 0.0135411 0.0155453 0.0176295 0.019614 0.0203059 0.0194772 0.0130392 0.000851626 -0.020097 -0.0301848 -0.0163447 0.00536128 0.0152799 0.0203619 0.0209846 0.0204105 0.0191236 0.017834 0.0166484 0.0156434 0.0147855 0.0140382 0.0128607 0.0124595 0.0121062 0.0118046 0.0115937 0.0114821 0.0115754 0.0118666 0.0124242 0.0131885 0.0141387 0.0151774 0.0160163 0.0165683 0.0158268 0.0139717 0.00846591 0.000841426 -0.0103212 -0.014188 -0.00910771 0.00296898 0.00959597 0.0145663 0.0160931 0.0167276 0.016357 0.0157965 0.0150954 0.014439 0.0138402 0.013319 0.0123024 0.0121889 0.0121743 0.0122482 0.0124214 0.0126749 0.0130093 0.0134009 0.0138349 0.0142787 0.0146787 0.0149958 0.0150205 0.0147538 0.013525 0.0116379 0.00763992 0.00311663 -0.00297284 -0.00528535 -0.00215384 0.00416911 0.00808925 0.011671 0.0130651 0.0139742 0.0140149 0.0138616 0.0135023 0.0131338 0.0127856 0.0125026 0.0116706 0.0118349 0.0121566 0.0126071 0.0131736 0.0138071 0.0144035 0.0149257 0.0152723 0.0154524 0.015371 0.0150794 0.014417 0.0135124 0.0119101 0.00996537 0.00683963 0.00378331 0.000235539 -0.00081691 0.000461327 0.00413966 0.00669937 0.00940467 0.0107005 0.0117007 0.0119983 0.0121035 0.0119911 0.0118415 0.0117015 0.0116287 0.0109098 0.0113419 0.0120079 0.0128614 0.013864 0.0149476 0.0158629 0.0165775 0.0168706 0.0168358 0.0163034 0.0154794 0.0142296 0.0128903 0.0111144 0.00930622 0.00692887 0.00488141 0.00270744 0.00207702 0.00275081 0.00482872 0.00639236 0.00821401 0.00918944 0.0100176 0.0103491 0.0105358 0.0105492 0.0105339 0.0105471 0.010647 0.00996572 0.0106463 0.0116732 0.0129922 0.0145318 0.0162309 0.0175884 0.0186046 0.0188756 0.0186491 0.0176097 0.0162095 0.0142684 0.0124714 0.0104107 0.00860803 0.00662067 0.00508204 0.0036767 0.00328761 0.00361506 0.00485118 0.00588672 0.00715167 0.00791027 0.00857666 0.00889159 0.00908907 0.00915377 0.00920104 0.00930386 0.00952075 0.00878194 0.00967461 0.0110661 0.0129228 0.0151227 0.0176923 0.0196762 0.0211596 0.0214339 0.0210576 0.0193876 0.0172634 0.0144235 0.0121378 0.0097336 0.00795561 0.00626033 0.00511254 0.00422412 0.00397717 0.00422104 0.00494199 0.0056148 0.00643276 0.00695483 0.0074144 0.00763252 0.00776033 0.00779483 0.007827 0.00794608 0.00821076 
        </DataArray>
        <DataArray Name="vz" NumberOfComponents="1" type="Float32" format="ascii">
0 0 0 0 0 0 0 0 0 0 0 0 0 0 0 0 0 0 0 0 0 0 0 0 0 0 0 0 0 0 0 0 0 0 0 0 0 0 0 0 0 0 0 0 0 0 0 0 0 0 0 0 0 0 0 0 0 0 0 0 0 0 0 0 0 0 0 0 0 0 0 0 0 0 0 0 0 0 0 0 0 0 0 0 0 0 0 0 0 0 0 0 0 0 0 0 0 0 0 0 0 0 0 0 0 0 0 0 0 0 0 0 0 0 0 0 0 0 0 0 0 0 0 0 0 0 0 0 0 0 0 0 0 0 0 0 0 0 0 0 0 0 0 0 0 0 0 0 0 0 0 0 0 0 0 0 0 0 0 0 0 0 0 0 0 0 0 0 0 0 0 0 0 0 0 0 0 0 0 0 0 0 0 0 0 0 0 0 0 0 0 0 0 0 0 0 0 0 0 0 0 0 0 0 0 0 0 0 0 0 0 0 0 0 0 0 0 0 0 0 0 0 0 0 0 0 0 0 0 0 0 0 0 0 0 0 0 0 0 0 0 0 0 0 0 0 0 0 0 0 0 0 0 0 0 0 0 0 0 0 0 0 0 0 0 0 0 0 0 0 0 0 0 0 0 0 0 0 0 0 0 0 0 0 0 0 0 0 0 0 0 0 0 0 0 0 0 0 0 0 0 0 0 0 0 0 0 0 0 0 0 0 0 0 0 0 0 0 0 0 0 0 0 0 0 0 0 0 0 0 0 0 0 0 0 0 0 0 0 0 0 0 0 0 0 0 0 0 0 0 0 0 0 0 0 0 0 0 0 0 0 0 0 0 0 0 0 0 0 0 0 0 0 0 0 0 0 0 0 0 0 0 0 0 0 0 0 0 0 0 0 0 0 0 0 0 0 0 0 0 0 0 0 0 0 0 0 0 0 0 0 0 0 0 0 0 0 0 0 0 0 0 0 0 0 0 0 0 0 0 0 0 0 0 0 0 0 0 0 0 0 0 0 0 0 0 0 0 0 0 0 0 0 0 0 0 0 0 0 0 0 0 0 0 0 0 0 0 0 0 0 0 0 0 0 0 0 0 0 0 0 0 0 0 0 0 0 0 0 0 0 0 0 0 0 0 0 0 0 0 0 0 0 0 0 0 0 0 0 0 0 0 0 0 0 0 0 0 0 0 0 0 0 0 0 0 0 0 0 0 0 0 0 0 0 0 0 0 0 0 0 0 0 0 0 0 0 0 0 0 0 0 0 0 0 0 0 0 0 0 0 0 0 0 0 0 0 0 0 0 0 0 0 0 0 0 0 0 0 0 0 0 0 0 0 0 0 0 0 0 0 0 0 0 0 0 0 0 0 0 0 0 0 0 0 0 0 0 0 0 0 0 0 0 0 0 0 0 0 0 0 0 0 0 0 0 0 0 0 0 0 0 0 0 0 0 0 0 0 0 0 0 0 0 0 0 0 0 0 0 0 0 0 0 0 0 0 0 0 0 0 0 0 0 0 0 0 0 0 0 0 0 0 0 0 0 0 0 0 0 0 0 0 0 0 0 0 0 0 0 0 0 0 0 0 0 0 0 0 0 0 0 0 0 0 0 0 0 0 0 0 0 0 0 0 0 0 0 0 0 0 0 0 0 0 0 0 0 0 0 0 0 0 0 0 0 0 0 0 0 0 0 0 0 0 0 0 0 0 0 0 0 0 0 0 0 0 0 0 0 0 0 0 0 0 0 0 0 0 0 0 0 0 0 0 0 0 0 0 0 0 0 0 0 0 0 0 0 0 0 0 0 0 0 0 0 0 0 0 0 0 0 0 0 0 0 0 0 0 0 0 0 0 0 0 0 0 0 0 0 0 0 0 0 0 0 0 0 0 0 0 0 0 0 0 0 0 0 0 0 0 0 0 0 0 0 0 0 0 0 0 0 0 0 0 0 0 0 0 0 0 0 0 0 0 0 0 0 0 0 0 0 0 0 0 0 0 0 0 0 0 0 0 0 0 0 0 0 0 0 0 0 0 0 0 0 0 0 0 0 0 0 0 0 0 0 0 0 0 0 0 0 0 0 0 0 0 0 0 0 0 0 0 0 0 0 0 0 0 0 0 0 0 0 0 0 0 0 0 0 0 0 0 0 0 0 0 0 0 0 0 0 0 0 0 0 0 0 0 0 0 0 0 0 0 0 0 0 0 0 0 0 0 0 0 0 0 0 0 0 0 0 0 0 0 0 0 0 0 0 0 0 0 0 0 0 0 0 0 0 0 0 0 0 0 0 0 0 0 0 0 0 0 0 0 0 0 0 0 0 0 0 0 0 
        </DataArray>
        <DataArray Name="p" NumberOfComponents="1" type="Float32" format="ascii">