<?xml version="1.0"?>
<VTKFile type="StructuredGrid" version="0.1" byte_order="LittleEndian">
  <StructuredGrid WholeExtent="0 32 0 32 0 1">
    <Piece Extent="0 32 0 32 0 1">
      <PointData>
      </PointData>
      <CellData>
        <DataArray Name="vx" NumberOfComponents="1" type="Float32" format="ascii">
0.020094 0.0199557 0.0198089 0.019656 0.0194743 0.0192951 0.0190777 0.0189036 0.0187171 0.0186336 0.0186206 0.0186753 0.0188904 0.0190984 0.0193593 0.0195708 0.0197592 0.0199649 0.0201582 0.020425 0.0206807 0.0210226 0.0213058 0.0214659 0.0215592 0.0214429 0.0212622 0.0210275 0.0207938 0.0205827 0.020398 0.0202389 0.0199386 0.0198257 0.0196901 0.0195365 0.0193344 0.0191318 0.0188636 0.0186598 0.0184196 0.0183479 0.0183769 0.0185075 0.0189161 0.0192861 0.0197186 0.0200318 0.0202781 0.0205357 0.0207546 0.0210189 0.0212366 0.0214549 0.0215607 0.0215237 0.0214181 0.0211824 0.0209395 0.0206919 0.0204795 0.0203061 0.0201649 0.0200481 0.0197714 0.0196746 0.0195368 0.019364 0.0191182 0.0188654 0.018504 0.0182395 0.0178919 0.0178602 0.0179634 0.0182093 0.0189724 0.0196194 0.0203256 0.0207592 0.0210165 0.0212861 0.0214803 0.0217248 0.0218938 0.0220145 0.0219537 0.0217002 0.0213828 0.0209897 0.0206548 0.0203733 0.020169 0.0200281 0.0199274 0.0198504 0.0195734 0.0194847 0.0193335 0.0191253 0.0188156 0.0184823 0.0179725 0.0175851 0.0170406 0.0170307 0.0172296 0.0177015 0.0191106 0.0202805 0.0214355 0.021979 0.0221286 0.0223176 0.022393 0.0225863 0.0227006 0.0227641 0.0225313 0.0220149 0.0214477 0.0208338 0.0203687 0.0200295 0.0198258 0.0197182 0.0196605 0.0196245 0.0193766 0.0192923 0.0191213 0.0188579 0.0184478 0.0179524 0.0171557 0.016512 0.0155828 0.0158094 0.0161944 0.016835 0.0193293 0.0213356 0.0232776 0.0240338 0.0238973 0.0238534 0.0236326 0.0236871 0.0237167 0.0237463 0.0233022 0.0224086 0.0214978 0.0206077 0.019999 0.019612 0.0194326 0.0193803 0.0193821 0.0193961 0.0191663 0.0190955 0.018913 0.0185818 0.0180364 0.0172799 0.016081 0.0150617 0.0137672 0.0143143 0.014853 0.0157952 0.0196608 0.022855 0.0260144 0.0269599 0.0263076 0.0259075 0.0251617 0.0249498 0.0248763 0.0250133 0.0243259 0.0229258 0.0216114 0.0203371 0.0195398 0.0190871 0.0189478 0.0189736 0.0190575 0.0191394 0.0190431 0.019004 0.0188299 0.0184125 0.0176836 0.0165182 0.0148608 0.0136471 0.0124766 0.0157535 0.0170806 0.0165079 0.0203966 0.0232074 0.027558 0.0296199 0.028746 0.028244 0.026886 0.0262705 0.0261069 0.0264995 0.0254204 0.0230922 0.0212 0.0196663 0.0188357 0.0184337 0.0184294 0.0185847 0.0187825 0.0189508 0.0189725 0.019017 0.0189107 0.0184607 0.0176538 0.016335 0.0151131 0.0153119 0.0174558 0.0223513 0.0228861 0.021451 0.0232902 0.0241245 0.0269871 0.0278905 0.0274023 0.0289469 0.0278095 0.0269204 0.0267346 0.0276606 0.0258117 0.0221651 0.0199334 0.0183493 0.0177295 0.0175105 0.0177452 0.0180991 0.0184649 0.0187656 0.0191359 0.0193223 0.019398 0.0190868 0.0185992 0.0176645 0.0181835 0.0202135 0.0243923 0.0204797 0.0176707 0.0236305 0.0260301 0.0291773 0.029567 0.0233213 0.0213237 0.0257398 0.0263676 0.0257674 0.0261417 0.0275606 0.0239417 0.0171183 0.0142438 0.0145683 0.0157092 0.0163622 0.0171636 0.0177992 0.0183542 0.0187896 0.0193741 0.0198137 0.0202236 0.0203727 0.0206054 0.0208289 0.0227996 0.0263196 0.0244201 0.0198156 0.0228017 0.0266449 0.0253378 0.024844 0.0232003 0.0222432 0.0201696 0.020404 0.0229687 0.0218917 0.0215832 0.020959 0.0166534 0.00949964 0.00673991 0.0096023 0.0128793 0.0147568 0.0163078 0.0173507 0.0181742 0.018815 0.0198902 0.020607 0.0214735 0.0223426 0.0237459 0.0251654 0.0282288 0.0296694 0.0277057 0.0274376 0.0288688 0.0277303 0.0233866 0.0203941 0.0171277 0.0206717 0.0182335 0.0140224 0.0172729 0.0151202 0.0127564 0.00737018 0.0051169 0.00851228 0.00804729 0.00888154 0.0130121 0.0149791 0.0166646 0.0176658 0.018492 0.0191839 0.0202677 0.0212764 0.0225702 0.0242444 0.0266782 0.029309 0.0323491 0.0321223 0.031481 0.0318584 0.0299107 0.0265669 0.0214831 0.0174985 0.0133367 0.0147776 0.014454 0.0119129 0.0139232 0.0129342 0.0131193 0.00812475 0.00337271 0.0097087 0.0105526 0.00955702 0.0131524 0.0151107 0.0167808 0.0177828 0.0186361 0.0194115 0.0206956 0.021841 0.0233906 0.0255995 0.0286931 0.0319034 0.0347541 0.0347151 0.0338939 0.0329283 0.029511 0.0252582 0.0203501 0.0160294 0.0121213 0.0110877 0.0149554 0.0145318 0.0113015 0.0108569 0.0079102 0.00694778 0.00802975 0.0143263 0.0212611 0.0203616 0.0185681 0.0185946 0.0185918 0.0188663 0.0192725 0.0198751 0.0206644 0.0217531 0.0231369 0.0252749 0.0277022 0.0306096 0.0304831 0.0297388 0.0317882 0.0313247 0.0279622 0.023678 0.0190323 0.0146444 0.0109738 0.00921272 0.0157189 0.016292 0.0109615 0.011875 0.0107812 0.0113967 0.015246 0.0160571 0.019491 0.022219 0.0201661 0.0197323 0.0192311 0.0192266 0.0194492 0.0199425 0.0205286 0.0213991 0.0224415 0.0241198 0.0256659 0.0281135 0.026234 0.0249777 0.0292661 0.0299628 0.0270494 0.0227082 0.0178354 0.0131939 0.00937823 0.00808508 0.0121047 0.0124176 0.0102877 0.012572 0.0143799 0.0167161 0.0214602 0.0221541 0.0221375 0.0232973 0.0216627 0.0207843 0.0199782 0.019685 0.0196884 0.0199969 0.0201094 0.0206456 0.0212597 0.0221875 0.0231099 0.0245656 0.0253234 0.0227193 0.0242662 0.0276879 0.0259107 0.0219347 0.0168701 0.01232 0.00927605 0.0108405 0.0113378 0.0099883 0.0119072 0.0145225 0.0168664 0.019105 0.022658 0.0240625 0.0238862 0.0234641 0.0219238 0.0209112 0.0201225 0.0197448 0.0196471 0.0197949 0.0197404 0.0199166 0.0201132 0.0202357 0.0205369 0.0207095 0.0235101 0.0218461 0.0193974 0.0228316 0.0236727 0.0209288 0.0162558 0.0125886 0.0122705 0.0150446 0.0126073 0.0112988 0.0149566 0.0174362 0.0196412 0.0213541 0.0232508 0.0238249 0.0234289 0.0227393 0.0216889 0.0208054 0.0201841 0.0198011 0.0196443 0.0196408 0.0193933 0.01929 0.0191262 0.0188338 0.0184562 0.0185898 0.0205352 0.0259721 0.0232607 0.0186497 0.0211688 0.0203985 0.0176998 0.0159008 0.0177274 0.0155693 0.0116938 0.0149817 0.01883 0.0209109 0.0220761 0.0228662 0.0234173 0.0236164 0.0230515 0.0220765 0.0213544 0.0205723 0.0201381 0.0197843 0.0196041 0.0194823 0.0192354 0.0188802 0.018396 0.0176278 0.0165618 0.0154402 0.0152716 0.0191848 0.0226454 0.018522 0.0174148 0.0203445 0.0200439 0.0217639 0.0194209 0.0145106 0.0172021 0.0218451 0.0238418 0.0245303 0.0245634 0.024236 0.0232929 0.0229876 0.0222364 0.0210788 0.0208054 0.0202093 0.0200951 0.019839 0.0196855 0.0194798 0.0192336 0.0187552 0.0181324 0.0172267 0.0159678 0.0142978 0.0125034 0.0122676 0.0136735 0.015539 0.0160516 0.0173569 0.0208976 0.0223559 0.0234306 0.025342 0.0266158 0.0273041 0.0267504 0.0264003 0.0251281 0.0234356 0.0218277 0.0226617 0.0222025 0.0205511 0.0205711 0.0198387 0.0200138 0.0198679 0.0197864 0.0195544 0.0194282 0.0188916 0.0182228 0.0173272 0.016186 0.0146802 0.0127932 0.011361 0.0103751 0.0113141 0.0131297 0.0158204 0.0214064 0.0254532 0.0284356 0.0298553 0.0288153 0.0279113 0.0269026 0.0270599 0.0254006 0.0235978 0.0225647 0.0222263 0.0208934 0.0205094 0.0209758 0.0196429 0.0200527 0.0200148 0.0200183 0.0197874 0.0196853 0.0191585 0.0185258 0.0177311 0.0168161 0.0156752 0.0143097 0.0130012 0.0120038 0.0121025 0.0136802 0.0167933 0.0215334 0.0255328 0.0277076 0.0281183 0.0272465 0.0264378 0.0257883 0.0253506 0.0240439 0.021825 0.0216596 0.0199209 0.0188681 0.0226779 0.0224071 0.0200318 0.02024 0.0202066 0.0202492 0.0200374 0.0199945 0.0194955 0.018916 0.0182292 0.0175027 0.0166774 0.0157862 0.0149394 0.0142926 0.0143323 0.0154486 0.017629 0.0206593 0.0231967 0.0245689 0.0247479 0.024138 0.0233244 0.0227857 0.0217335 0.023858 0.0233103 0.0201981 0.0172695 0.0148608 0.0172572 0.0186938 0.0192977 0.0200596 0.0204061 0.0205114 0.0203387 0.0202506 0.0197983 0.0192865 0.0187057 0.0181261 0.0175129 0.0169275 0.0163989 0.0160575 0.0161107 0.0167928 0.0181109 0.0198486 0.0213468 0.0221901 0.0223904 0.0221896 0.0219987 0.0219417 0.0232955 0.0266406 0.0232162 0.0183995 0.0161062 0.0129112 0.00924433 0.0117818 0.018115 0.0194426 0.0204884 0.0206675 0.0205687 0.0205164 0.0200655 0.0195986 0.0191023 0.0186288 0.0181544 0.0177379 0.0173846 0.0171822 0.0172161 0.0176022 0.0183195 0.0192157 0.0199672 0.0203523 0.0202619 0.0199205 0.0190569 0.0185482 0.0162851 0.0187641 0.0189747 0.0162475 0.0158612 0.0134222 0.0152919 0.0187604 0.0207945 0.0212499 0.0213886 0.0212088 0.0209078 0.0206815 0.0202451 0.0198216 0.0193967 0.019004 0.0186253 0.0183058 0.018043 0.0178959 0.0178948 0.0180897 0.018458 0.0188984 0.0192407 0.0193529 0.0191302 0.0186419 0.0176724 0.0162675 0.0134089 0.00958106 0.0102506 0.0150576 0.0162188 0.0183116 0.0220846 0.0225795 0.0226982 0.0222359 0.0219781 0.0215293 0.0211163 0.0207535 0.0203362 0.019954 0.0195892 0.0192589 0.0189488 0.0186886 0.0184744 0.0183429 0.0183035 0.0183761 0.0185377 0.0187202 0.0188277 0.0187861 0.0185222 0.018089 0.0174625 0.0166113 0.0159557 0.013538 0.0159241 0.02112 0.0240624 0.0292195 0.0288072 0.0253813 0.0242822 0.0231051 0.0223942 0.0217306 0.021214 0.0207288 0.0203529 0.0200163 0.0197039 0.0194223 0.0191625 0.0189407 0.0187563 0.0186293 0.0185647 0.0185681 0.0186213 0.018682 0.0186878 0.0185953 0.0183526 0.0179858 0.0175326 0.0169819 0.0169392 0.0166035 0.0192592 0.0222508 0.0247648 0.0282774 0.0272009 0.025101 0.0240919 0.0230302 0.022305 0.0216573 0.0211583 0.0206373 0.0203136 0.0200247 0.0197591 0.0195169 0.0192944 0.0190977 0.0189318 0.0188048 0.0187245 0.0186911 0.0186914 0.0187023 0.0186787 0.0185987 0.018428 0.0181856 0.0179355 0.0176588 0.0178722 0.0180709 0.0199859 0.0220735 0.0236207 0.0255191 0.025167 0.0242217 0.0234862 0.0226478 0.0220078 0.0214494 0.0210104 0.020513 0.0202445 0.0200011 0.019776 0.0195645 0.0193691 0.019187 0.0190319 0.0189023 0.0188148 0.0187672 0.0187514 0.0187619 0.0187568 0.0187296 0.0186502 0.0185312 0.0184272 0.0183257 0.0185715 0.0189103 0.0202222 0.0215746 0.0226171 0.0237394 0.0236373 0.0231987 0.0226858 0.0220978 0.0216076 0.0211736 0.0208188 0.0203762 0.020159 0.0199562 0.0197649 0.0195753 0.0193971 0.0192181 0.0190658 0.0189276 0.018837 0.0187888 0.0187781 0.0188194 0.0188586 0.0189053 0.018923 0.0189241 0.0189508 0.018989 0.0192508 0.0195779 0.0204063 0.0212704 0.0219326 0.0225731 0.0225681 0.0223386 0.0219884 0.0215842 0.0212212 0.0208952 0.0206188 0.0202358 0.0200622 0.0198923 0.0197261 0.0195479 0.0193767 0.0191884 0.0190313 0.0188766 0.0187864 0.0187487 0.0187606 0.0188645 0.0189713 0.0191104 0.0192237 0.0193271 0.0194541 0.0195856 0.0198498 0.0201429 0.0206753 0.0211942 0.0215828 0.0219131 0.0218749 0.0217084 0.0214435 0.0211516 0.0208804 0.0206363 0.0204249 
        </DataArray>
        <DataArray Name="vy" NumberOfComponents="1" type="Float32" format="ascii">
0.0121355 0.0120646 0.0120316 0.012036 0.0120713 0.0121123 0.0121683 0.0121603 0.0121685 0.0120346 0.0119811 0.0117943 0.0117106 0.0116638 0.0116839 0.0117983 0.0119289 0.0121472 0.0124212 0.012788 0.0131642 0.0135853 0.0137873 0.0139264 0.0138126 0.0135965 0.0133345 0.0130607 0.0128082 0.0125876 0.0123986 0.0122495 0.0122573 0.0121938 0.0121755 0.0122035 0.0122613 0.0123209 0.0123841 0.0123458 0.012317 0.012055 0.0119499 0.0116055 0.0114406 0.0113665 0.0113817 0.0115576 0.0116902 0.0119228 0.0121842 0.0125357 0.0129247 0.0133516 0.0136757 0.0138921 0.0139033 0.0137757 0.0135472 0.0132802 0.013004 0.0127574 0.0125419 0.0123773 0.0123586 0.0123136 0.0123224 0.0123891 0.0124815 0.0125753 0.0126543 0.0125887 0.0125035 0.0120548 0.0118391 0.0112346 0.0109392 0.010862 0.0109274 0.0112545 0.01141 0.0116776 0.0119358 0.0122976 0.0127403 0.0132404 0.0137352 0.0140526 0.0141663 0.0140733 0.0138309 0.013525 0.0131965 0.0129065 0.0126576 0.0124784 0.0124307 0.0124271 0.0124865 0.0126172 0.012764 0.0129186 0.0130205 0.0129177 0.0127216 0.0119227 0.0116553 0.0105944 0.0100754 0.0100476 0.0102209 0.0108946 0.0111294 0.0114747 0.0117341 0.0121191 0.0126426 0.0132769 0.0140063 0.014449 0.0146249 0.0144909 0.0141635 0.0137583 0.0133438 0.0129957 0.0127147 0.012532 0.0125007 0.0125563 0.0126852 0.0129055 0.0131359 0.0134105 0.0135827 0.0135032 0.0131088 0.0118405 0.0111763 0.00928505 0.0083631 0.0085297 0.00918644 0.0106249 0.0110121 0.0114462 0.0116464 0.0119941 0.0125737 0.0133888 0.0145023 0.0151081 0.0153728 0.0151417 0.0146556 0.0140729 0.0135187 0.0130808 0.0127562 0.0125719 0.012529 0.0126811 0.0129202 0.0132857 0.0136719 0.0141834 0.0144661 0.0143968 0.0134502 0.0111039 0.0107772 0.00752408 0.00573406 0.0062409 0.00741606 0.0103301 0.0111898 0.0117918 0.0118583 0.0120337 0.012586 0.0136663 0.0153898 0.0162395 0.0164633 0.0159526 0.0151668 0.0142989 0.013566 0.0130344 0.0126885 0.0125335 0.0125491 0.0128159 0.0132027 0.0137845 0.0144548 0.015369 0.0158632 0.0158421 0.0139593 0.0108901 0.00956232 0.00415142 0.00135323 0.0020494 0.00499088 0.0106244 0.0118827 0.0127059 0.0125628 0.0123107 0.0125609 0.0138871 0.0165952 0.0177213 0.0180217 0.0171682 0.0159614 0.0146657 0.0136621 0.0129864 0.0126026 0.0124754 0.0124667 0.0128958 0.0135095 0.0144374 0.0155611 0.0169901 0.0173002 0.0166292 0.0112399 0.00565836 0.0103463 0.00481509 -0.000402431 -0.000366018 0.000551303 0.00895301 0.0122006 0.0137769 0.0137308 0.0127707 0.0123468 0.014283 0.0190009 0.0205108 0.0200089 0.0182052 0.0164347 0.0146325 0.0134046 0.012651 0.0123057 0.0122638 0.0123038 0.0128847 0.0137566 0.0150421 0.0165924 0.0179162 0.016987 0.0136323 0.00712591 0.0069882 0.0103789 0.00270579 -0.00288586 -0.00218494 0.00120829 0.0118713 0.0103029 0.012573 0.0146007 0.0134844 0.0120785 0.0146457 0.0218008 0.0232418 0.0220094 0.0192713 0.0169534 0.0146441 0.0131468 0.0122893 0.0119629 0.0119853 0.0119237 0.0126428 0.0137461 0.0152794 0.0169754 0.0175247 0.0146497 0.0108458 0.0102021 0.0116112 0.00620141 -0.0021917 -0.00495956 -0.00300506 0.00534341 0.0169443 0.00901434 0.00926031 0.0135833 0.0127303 0.0103981 0.0163747 0.0303577 0.0308255 0.0226984 0.016289 0.014686 0.012987 0.0119497 0.0113928 0.0112911 0.0114645 0.0113117 0.0120325 0.013177 0.0146238 0.0161064 0.0155606 0.0116457 0.011152 0.0139294 0.00940902 0.00417431 -0.000298135 -0.0016464 -0.000530277 0.00470675 0.0152292 0.0126891 0.00908521 0.0136582 0.0150125 0.0143183 0.0184668 0.0325803 0.0316211 0.0220729 0.0132223 0.0122074 0.0112691 0.0107117 0.0104674 0.0105493 0.0108065 0.0104909 0.011074 0.0120215 0.0130814 0.0141778 0.0132163 0.0103143 0.0113364 0.0130058 0.00957221 0.00584515 0.00335356 0.0025829 0.00305422 0.00552007 0.0143701 0.0168246 0.00900363 0.0126302 0.0160413 0.017702 0.0240845 0.0315975 0.0285146 0.0234385 0.010355 0.00853915 0.00901951 0.00918836 0.00945571 0.00973156 0.0100366 0.00945457 0.00971869 0.0101694 0.0104701 0.010915 0.00977836 0.00848279 0.0122671 0.0139803 0.0114692 0.00951022 0.00807631 0.00744173 0.00734729 0.0080037 0.0136163 0.0168605 0.00939074 0.0129018 0.0168663 0.0193399 0.0271646 0.0303265 0.0218204 0.0227877 0.0107242 0.00734115 0.00780848 0.00825393 0.00869959 0.00898772 0.00920051 0.00851144 0.00838833 0.00825852 0.00785282 0.00780561 0.0073224 0.00733807 0.01266 0.0144851 0.0139797 0.013422 0.0125229 0.0118372 0.0111362 0.0104326 0.0110055 0.0128848 0.012858 0.0162509 0.0191909 0.0215612 0.0246809 0.0261773 0.0155655 0.0179275 0.0123698 0.00952711 0.0087521 0.00866254 0.0086718 0.00864843 0.00857871 0.0076611 0.00724212 0.00664952 0.00592171 0.00557184 0.00725898 0.00929649 0.0112512 0.011916 0.0153825 0.0170306 0.0169955 0.0164575 0.0154498 0.0134269 0.00953643 0.00912832 0.0152817 0.0167348 0.0173799 0.0192149 0.0224003 0.024129 0.017675 0.0157348 0.0114665 0.00996697 0.0091719 0.00887399 0.00860764 0.00832536 0.00801305 0.00709901 0.00645316 0.00552848 0.00456802 0.00374655 0.00650148 0.0102853 0.00984039 0.00966582 0.0163642 0.0206902 0.0218125 0.0213806 0.0196311 0.0154164 0.00889729 0.00796022 0.0150496 0.0154456 0.0151254 0.0169511 0.0190749 0.019978 0.0166434 0.0157503 0.0129329 0.0115617 0.0103654 0.00959027 0.0089032 0.0082865 0.00770867 0.00682977 0.00609963 0.00514242 0.00411592 0.00327086 0.00529217 0.0111362 0.0129316 0.00603988 0.0138612 0.0225433 0.0260061 0.0260435 0.0229526 0.0150001 0.00647738 0.0101954 0.0147813 0.012943 0.0125714 0.0145813 0.0168355 0.0182247 0.0167215 0.0160057 0.0137978 0.0125171 0.0111371 0.0100896 0.00913818 0.00830658 0.00756553 0.00680956 0.00606095 0.00516306 0.00410494 0.00308189 0.00351683 0.00849649 0.0141164 0.00966462 0.0118445 0.0225811 0.0293432 0.0297204 0.0235151 0.0124141 0.00887975 0.012973 0.0120019 0.00923421 0.0101955 0.0129902 0.0156358 0.0174418 0.0168407 0.016668 0.0147093 0.0134273 0.01183 0.0105661 0.00941058 0.00843298 0.00759416 0.00703891 0.00637796 0.00564909 0.00479709 0.00370188 0.00310123 0.00439062 0.00907262 0.0134331 0.0159909 0.0209184 0.0295126 0.0306909 0.0230295 0.0168491 0.0122628 0.00992093 0.00716128 0.00698412 0.00930443 0.0127078 0.0153469 0.017458 0.0170426 0.0176064 0.0153717 0.0140876 0.0122904 0.0109203 0.00965844 0.00862907 0.00777963 0.0074045 0.00688669 0.00640184 0.00589425 0.00526579 0.00471041 0.00488832 0.00694378 0.0103696 0.0171376 0.0199299 0.0273175 0.0291134 0.0229264 0.0190846 0.0102844 0.00653793 0.00578505 0.00678976 0.00940066 0.0136013 0.0166526 0.0188832 0.017649 0.0187157 0.0159764 0.014587 0.0124602 0.0110396 0.00979133 0.00881051 0.0080334 0.0078474 0.00748679 0.00720533 0.0069688 0.00672652 0.00652554 0.00662219 0.00777466 0.010072 0.0144126 0.0190168 0.0238611 0.0249498 0.0204633 0.0149008 0.00971707 0.00738585 0.00699121 0.00793812 0.0107419 0.0158363 0.0175714 0.0193734 0.0165821 0.0204797 0.0162014 0.0150215 0.0125318 0.0109545 0.00980629 0.00895997 0.00832323 0.00830018 0.00808661 0.00796267 0.00790603 0.00792516 0.00801182 0.00828039 0.00912664 0.0105684 0.0135251 0.0163108 0.0190866 0.0194977 0.0167534 0.013562 0.0100527 0.0083041 0.00764929 0.00775881 0.0108685 0.0190143 0.0185041 0.0203125 0.0177607 0.0204714 0.0154997 0.0164595 0.0132151 0.0108974 0.00978137 0.00907455 0.00861368 0.0087335 0.00865202 0.00864058 0.0086806 0.00881256 0.00901062 0.00936771 0.0100125 0.0110358 0.012685 0.0144377 0.0158685 0.016022 0.0144268 0.012381 0.0103194 0.00907284 0.00849575 0.00886433 0.0119523 0.0179949 0.0199243 0.0221726 0.0207665 0.0182409 0.0117209 0.0180145 0.014289 0.0108665 0.00973688 0.00915456 0.00888459 0.00913014 0.00916091 0.00922444 0.00931369 0.00948097 0.00969852 0.010045 0.010539 0.0112417 0.0122157 0.0131892 0.0138817 0.0139042 0.0129892 0.0117893 0.010461 0.00952122 0.00899627 0.00884634 0.0105916 0.0175395 0.0241029 0.0245045 0.0233049 0.0203194 0.0127351 0.014027 0.0113466 0.00966544 0.00921267 0.00909957 0.00910455 0.00951915 0.00962884 0.00973508 0.00984386 0.0100083 0.0102016 0.010496 0.0108561 0.0113511 0.0119158 0.0124837 0.0128077 0.0127659 0.0121775 0.0113724 0.0104418 0.00963083 0.00895034 0.00813722 0.00773073 0.0155239 0.0293523 0.028171 0.0266145 0.0235308 0.0131457 0.00867263 0.00819437 0.00854101 0.00881623 0.0091222 0.00935926 0.00995335 0.0100756 0.0101828 0.010285 0.0104273 0.0105857 0.0108187 0.0110784 0.0114241 0.0117694 0.0121113 0.0122687 0.0122281 0.0118733 0.011407 0.0108729 0.0105578 0.0104206 0.0110253 0.0111364 0.0149935 0.0281618 0.0267842 0.0268131 0.0210745 0.00815533 0.00737062 0.00831821 0.00873292 0.00913134 0.0094926 0.00977029 0.0103975 0.0104965 0.0105819 0.0106635 0.0107761 0.0108991 0.0110767 0.0112615 0.0115034 0.0117183 0.011932 0.0120123 0.0119829 0.011764 0.01149 0.0111908 0.011101 0.011288 0.0123055 0.01396 0.017783 0.0235765 0.0223257 0.023177 0.0176161 0.00911927 0.00879563 0.00905703 0.0093882 0.00969525 0.0100148 0.0102455 0.010821 0.0108753 0.0109273 0.0109826 0.0110655 0.0111578 0.0112912 0.0114233 0.0115946 0.0117336 0.0118764 0.0119261 0.0119226 0.0118104 0.011685 0.011562 0.0116147 0.0118905 0.0127295 0.0141793 0.0163314 0.0199604 0.0191133 0.018998 0.0160786 0.0118958 0.0110731 0.0104627 0.0103936 0.0104654 0.0106191 0.010739 0.0112013 0.0112104 0.0112284 0.0112578 0.0113143 0.011381 0.0114802 0.0115731 0.0116947 0.0117818 0.0118782 0.0119073 0.0119178 0.0118672 0.0118274 0.0118069 0.0119273 0.0122303 0.0129159 0.0140637 0.0155217 0.0175195 0.0169516 0.0169105 0.0150858 0.0127608 0.0119643 0.0113439 0.011182 0.0111301 0.0111612 0.0111859 0.0115154 0.0114891 0.0114811 0.0114915 0.0115292 0.0115775 0.0116529 0.0117157 0.0118014 0.0118463 0.0119085 0.0119151 0.0119294 0.0119144 0.0119267 0.0119704 0.0121183 0.0123988 0.0129036 0.0136998 0.0145622 0.0157722 0.0155752 0.0155063 0.0145131 0.0132312 0.0125824 0.0120439 0.0118083 0.0116669 0.0116011 0.0115527 0.0117735 0.0117217 0.0116954 0.0116935 0.0117202 0.0117571 0.0118177 0.0118559 0.0119143 0.0119157 0.0119456 0.0119152 0.0119155 0.0119066 0.0119363 0.0120092 0.0121582 0.0124107 0.0128029 0.0133767 0.0139546 0.0146903 0.0146575 0.0146745 0.0140895 0.0133824 0.012906 0.0124939 0.0122488 0.0120684 0.0119448 0.0118483 0.0119748 0.0119093 0.0118753 0.0118717 0.0118978 0.0119321 0.0119862 0.012001 0.0120344 0.0119787 0.0119726 0.0118816 0.0118505 0.0118291 0.0118585 0.0119506 0.0120924 0.0123225 0.0126386 0.0130727 0.0134976 0.0140041 0.0140974 0.0141637 0.0138737 0.0134803 0.0131349 0.0128103 0.0125629 0.0123608 0.0122002 0.0120731 
        </DataArray>
        <DataArray Name="vz" NumberOfComponents="1" type="Float32" format="ascii">
0 0 0 0 0 0 0 0 0 0 0 0 0 0 0 0 0 0 0 0 0 0 0 0 0 0 0 0 0 0 0 0 0 0 0 0 0 0 0 0 0 0 0 0 0 0 0 0 0 0 0 0 0 0 0 0 0 0 0 0 0 0 0 0 0 0 0 0 0 0 0 0 0 0 0 0 0 0 0 0 0 0 0 0 0 0 0 0 0 0 0 0 0 0 0 0 0 0 0 0 0 0 0 0 0 0 0 0 0 0 0 0 0 0 0 0 0 0 0 0 0 0 0 0 0 0 0 0 0 0 0 0 0 0 0 0 0 0 0 0 0 0 0 0 0 0 0 0 0 0 0 0 0 0 0 0 0 0 0 0 0 0 0 0 0 0 0 0 0 0 0 0 0 0 0 0 0 0 0 0 0 0 0 0 0 0 0 0 0 0 0 0 0 0 0 0 0 0 0 0 0 0 0 0 0 0 0 0 0 0 0 0 0 0 0 0 0 0 0 0 0 0 0 0 0 0 0 0 0 0 0 0 0 0 0 0 0 0 0 0 0 0 0 0 0 0 0 0 0 0 0 0 0 0 0 0 0 0 0 0 0 0 0 0 0 0 0 0 0 0 0 0 0 0 0 0 0 0 0 0 0 0 0 0 0 0 0 0 0 0 0 0 0 0 0 0 0 0 0 0 0 0 0 0 0 0 0 0 0 0 0 0 0 0 0 0 0 0 0 0 0 0 0 0 0 0 0 0 0 0 0 0 0 0 0 0 0 0 0 0 0 0 0 0 0 0 0 0 0 0 0 0 0 0 0 0 0 0 0 0 0 0 0 0 0 0 0 0 0 0 0 0 0 0 0 0 0 0 0 0 0 0 0 0 0 0 0 0 0 0 0 0 0 0 0 0 0 0 0 0 0 0 0 0 0 0 0 0 0 0 0 0 0 0 0 0 0 0 0 0 0 0 0 0 0 0 0 0 0 0 0 0 0 0 0 0 0 0 0 0 0 0 0 0 0 0 0 0 0 0 0 0 0 0 0 0 0 0 0 0 0 0 0 0 0 0 0 0 0 0 0 0 0 0 0 0 0 0 0 0 0 0 0 0 0 0 0 0 0 0 0 0 0 0 0 0 0 0 0 0 0 0 0 0 0 0 0 0 0 0 0 0 0 0 0 0 0 0 0 0 0 0 0 0 0 0 0 0 0 0 0 0 0 0 0 0 0 0 0 0 0 0 0 0 0 0 0 0 0 0 0 0 0 0 0 0 0 0 0 0 0 0 0 0 0 0 0 0 0 0 0 0 0 0 0 0 0 0 0 0 0 0 0 0 0 0 0 0 0 0 0 0 0 0 0 0 0 0 0 0 0 0 0 0 0 0 0 0 0 0 0 0 0 0 0 0 0 0 0 0 0 0 0 0 0 0 0 0 0 0 0 0 0 0 0 0 0 0 0 0 0 0 0 0 0 0 0 0 0 0 0 0 0 0 0 0 0 0 0 0 0 0 0 0 0 0 0 0 0 0 0 0 0 0 0 0 0 0 0 0 0 0 0 0 0 0 0 0 0 0 0 0 0 0 0 0 0 0 0 0 0 0 0 0 0 0 0 0 0 0 0 0 0 0 0 0 0 0 0 0 0 0 0 0 0 0 0 0 0 0 0 0 0 0 0 0 0 0 0 0 0 0 0 0 0 0 0 0 0 0 0 0 0 0 0 0 0 0 0 0 0 0 0 0 0 0 0 0 0 0 0 0 0 0 0 0 0 0 0 0 0 0 0 0 0 0 0 0 0 0 0 0 0 0 0 0 0 0 0 0 0 0 0 0 0 0 0 0 0 0 0 0 0 0 0 0 0 0 0 0 0 0 0 0 0 0 0 0 0 0 0 0 0 0 0 0 0 0 0 0 0 0 0 0 0 0 0 0 0 0 0 0 0 0 0 0 0 0 0 0 0 0 0 0 0 0 0 0 0 0 0 0 0 0 0 0 0 0 0 0 0 0 0 0 0 0 0 0 0 0 0 0 0 0 0 0 0 0 0 0 0 0 0 0 0 0 0 0 0 0 0 0 0 0 0 0 0 0 0 0 0 0 0 0 0 0 0 0 0 0 0 0 0 0 0 0 0 0 0 0 0 0 0 0 0 0 0 0 0 0 0 0 0 0 0 0 0 0 0 0 0 0 0 0 0 0 0 0 0 0 0 0 0 0 0 0 0 0 0 0 0 0 0 0 0 0 0 0 0 0 0 0 0 0 0 0 0 0 0 0 0 0 0 0 0 0 0 0 0 0 0 0 0 0 0 0 0 0 0 0 0 0 0 0 
        </DataArray>
        <DataArray Name="p" NumberOfComponents="1" type="Float32" format="ascii">