<?xml version="1.0"?>
<VTKFile type="StructuredGrid" version="0.1" byte_order="LittleEndian">
  <StructuredGrid WholeExtent="0 32 0 32 0 1">
    <Piece Extent="0 32 0 32 0 1">
      <PointData>
      </PointData>
      <CellData>
        <DataArray Name="vx" NumberOfComponents="1" type="Float32" format="ascii">
0.0205887 0.0205713 0.0205542 0.0205413 0.0205011 0.0204542 0.0203513 0.0202378 0.0200553 0.0198567 0.0196115 0.019305 0.0190173 0.0186898 0.0184748 0.0183312 0.0182997 0.0184215 0.0186077 0.0189726 0.0193817 0.0199268 0.0204937 0.020946 0.0212475 0.0212719 0.0212224 0.0210728 0.0209225 0.020792 0.0206906 0.0206285 0.020429 0.0204445 0.0204537 0.0204644 0.0204406 0.0204158 0.0203246 0.0202367 0.0200687 0.0199066 0.0196925 0.0194102 0.0191471 0.0187986 0.0186136 0.0184914 0.0185198 0.0187224 0.0189876 0.0194049 0.0198188 0.0202809 0.0206758 0.0209265 0.0210431 0.0209762 0.020872 0.0207207 0.0205982 0.020505 0.0204501 0.0204295 0.0202436 0.0202807 0.0203033 0.0203233 0.0203021 0.0202892 0.020198 0.0201431 0.0199978 0.0199361 0.0198124 0.0195734 0.0193491 0.0189479 0.0187971 0.0187041 0.0187957 0.0190825 0.0194123 0.0198912 0.0203213 0.0207391 0.0210067 0.0210746 0.0209922 0.020788 0.0205927 0.0204056 0.0202893 0.0202191 0.0202008 0.0202136 0.0200108 0.0200605 0.0200864 0.0201041 0.0200745 0.0200559 0.0199436 0.0198875 0.0197573 0.0198124 0.0198209 0.0197924 0.0197106 0.0192896 0.0192401 0.0191359 0.0192454 0.0195951 0.0199489 0.0204864 0.0209403 0.0213511 0.0215275 0.0214139 0.0210943 0.0206888 0.0203528 0.0200902 0.01996 0.0199018 0.019915 0.0199564 0.0197483 0.0197969 0.0198085 0.0197947 0.0197164 0.0196298 0.0194159 0.0193302 0.0192433 0.019739 0.020187 0.0203739 0.0203051 0.0196282 0.0196581 0.0197211 0.0200055 0.0204485 0.0207663 0.0213212 0.0217941 0.022215 0.0222936 0.0219126 0.0212435 0.0205726 0.0200646 0.0197199 0.0195872 0.0195514 0.0196047 0.0196749 0.0194406 0.0194885 0.0194838 0.0194225 0.0192638 0.0190396 0.0186878 0.0185442 0.0187867 0.0199154 0.0208315 0.021781 0.0214984 0.02005 0.0202356 0.0203474 0.0208499 0.021563 0.0218017 0.0223097 0.0227666 0.0232271 0.0232927 0.0226503 0.0215245 0.0204836 0.0197389 0.0192775 0.0191407 0.0191335 0.0192375 0.0193432 0.0191673 0.019208 0.0191735 0.0190133 0.0186956 0.0182214 0.0177331 0.0179102 0.0193475 0.0230176 0.025963 0.0265913 0.0236203 0.0188426 0.0174906 0.0186035 0.02105 0.0228313 0.0231707 0.023564 0.0240057 0.0244763 0.0244364 0.0232041 0.0213262 0.0200002 0.019155 0.0186916 0.0186401 0.0187097 0.0188922 0.0190422 0.0188982 0.0189655 0.018933 0.0187166 0.0183135 0.0178369 0.0179144 0.0196236 0.0246687 0.0284837 0.0286912 0.0264814 0.0229933 0.0190926 0.0155241 0.0141746 0.0171693 0.022099 0.0236015 0.0241408 0.0244882 0.0247809 0.0248973 0.0232661 0.0204754 0.0189097 0.0181585 0.0178427 0.0179769 0.0181856 0.0184881 0.0187151 0.018811 0.0189266 0.0189528 0.0187532 0.0184615 0.0182429 0.0192795 0.0224691 0.0271091 0.0224904 0.0147665 0.0148655 0.0203104 0.0272132 0.0300218 0.0214447 0.0155856 0.0211868 0.023325 0.0239502 0.0243309 0.0235729 0.0231253 0.0201178 0.0158291 0.0155486 0.0162087 0.0167152 0.0173544 0.0178062 0.0182558 0.0185608 0.0187559 0.0190025 0.0191813 0.0192159 0.0191991 0.0196441 0.020736 0.0249716 0.0211246 0.0134166 0.0137432 0.0163188 0.0214909 0.0272415 0.0304092 0.0282262 0.0209222 0.0194869 0.0220703 0.0215143 0.0196983 0.0164349 0.0147737 0.011433 0.00925076 0.0113444 0.0134904 0.0151626 0.0164695 0.0172837 0.017944 0.0183861 0.0190014 0.0193868 0.019832 0.0202673 0.0209357 0.0218824 0.0233354 0.025014 0.0208932 0.0179198 0.0206037 0.0215744 0.0221683 0.0238325 0.0247095 0.0299006 0.0254534 0.0183382 0.0199337 0.0185917 0.015376 0.0144041 0.0111688 0.00821813 0.0109248 0.0118028 0.0137648 0.0153911 0.0167302 0.0175066 0.0181296 0.0185717 0.0191448 0.0196941 0.0203978 0.0212418 0.0224168 0.0233238 0.0237488 0.0204347 0.0189485 0.0216672 0.0225501 0.0223272 0.0214173 0.0215767 0.021529 0.025909 0.0275561 0.0228105 0.0204397 0.0188121 0.0171763 0.0159296 0.0106715 0.0103011 0.0121253 0.0118326 0.0142645 0.0155005 0.0168346 0.0175604 0.0181634 0.0186387 0.0194516 0.0200495 0.0208976 0.0220395 0.0234946 0.0245856 0.0237298 0.0201737 0.0204608 0.023456 0.0234053 0.0223697 0.0207529 0.0198478 0.0191001 0.0210739 0.024808 0.0230647 0.0192546 0.0176539 0.0156888 0.0157666 0.0139875 0.0142751 0.0175404 0.0180575 0.0180275 0.0182117 0.0183562 0.0185238 0.0187228 0.0190214 0.019464 0.0200438 0.0208706 0.0220396 0.0234627 0.0244955 0.023389 0.0207901 0.0217166 0.0237337 0.0230791 0.0217685 0.0200859 0.0189316 0.0183316 0.0195956 0.0257393 0.0255134 0.0199477 0.0180087 0.0167016 0.0161255 0.0166774 0.0182493 0.0201628 0.0211384 0.0202496 0.0196932 0.0191291 0.0189458 0.0189133 0.0191053 0.0194487 0.01985 0.020421 0.0212644 0.0221689 0.022875 0.021469 0.0186997 0.0197143 0.0222064 0.0222332 0.0210682 0.0193343 0.0181186 0.0178272 0.0196705 0.0258737 0.0254 0.0200534 0.0188326 0.019078 0.018437 0.0200504 0.0228847 0.023108 0.023108 0.0219506 0.0209666 0.0200135 0.0195241 0.0192542 0.0192625 0.0192633 0.0194652 0.0197689 0.0201837 0.0207487 0.0211399 0.0214614 0.0181843 0.0165176 0.0194317 0.0206317 0.0202276 0.0185852 0.0178613 0.0178361 0.021362 0.0229136 0.0198226 0.018697 0.0188712 0.0202026 0.0207166 0.0229117 0.0252056 0.0250255 0.0241907 0.022576 0.0213509 0.0202863 0.0196792 0.0193211 0.0192144 0.0191193 0.019081 0.0190786 0.0190222 0.0191471 0.019285 0.0208477 0.0196839 0.0138039 0.0136454 0.0177927 0.0189827 0.0182617 0.0188719 0.0211471 0.0266814 0.0235192 0.0175227 0.0193813 0.0203595 0.0219406 0.0227397 0.0242152 0.0250668 0.0246374 0.0238523 0.0224585 0.0213656 0.0204385 0.0198231 0.0194381 0.0192201 0.0190328 0.0188357 0.0185841 0.018265 0.0178532 0.0179217 0.0190292 0.0215923 0.0159146 0.00943661 0.013201 0.0174016 0.0191251 0.0224886 0.0257768 0.0237328 0.018311 0.0174045 0.0205771 0.0220941 0.0232161 0.0239209 0.0247324 0.0245665 0.0241758 0.0234439 0.0221579 0.0211778 0.0204293 0.019859 0.0195083 0.0192341 0.0190803 0.0187584 0.0183592 0.0178342 0.0172101 0.0168405 0.0179735 0.0215707 0.0260682 0.0195483 0.0136942 0.018076 0.0205516 0.0243015 0.0246466 0.0154219 0.0125649 0.0184895 0.0217253 0.0236499 0.0239657 0.0242878 0.0246233 0.0236451 0.0235086 0.0229941 0.0216812 0.0208582 0.0203466 0.0198919 0.0196312 0.0193402 0.0192525 0.0188928 0.0184348 0.0178602 0.017089 0.01636 0.0162747 0.0182463 0.0234584 0.0268842 0.0238221 0.0200045 0.0199696 0.0171291 0.0128509 0.011673 0.0156978 0.0214174 0.0231618 0.0243998 0.0236641 0.0242227 0.024708 0.0219961 0.0227688 0.0234425 0.0213879 0.0204848 0.0201709 0.0198772 0.0197561 0.0195107 0.0195333 0.0191811 0.0187391 0.0182109 0.0175305 0.0167984 0.0161228 0.0163481 0.0178937 0.021346 0.0221658 0.0198672 0.019451 0.017567 0.0173184 0.019428 0.0213927 0.0233337 0.0235265 0.0243221 0.0220757 0.0218899 0.0235016 0.020179 0.0218346 0.0239949 0.0214544 0.0203027 0.0200332 0.0198969 0.0199251 0.0197574 0.0198244 0.0195353 0.0191579 0.0187256 0.0182085 0.0176692 0.0170797 0.0167933 0.0170566 0.0181097 0.0187835 0.0188109 0.0199329 0.0204397 0.0211067 0.0215603 0.0217596 0.0221994 0.0219 0.0211321 0.0190651 0.0170858 0.0167501 0.0186092 0.0169353 0.0177665 0.0203966 0.0192192 0.0195758 0.0197495 0.0199899 0.0199718 0.0201799 0.0199306 0.0196033 0.0192469 0.018856 0.0184882 0.0180753 0.0178106 0.0176834 0.0180564 0.018479 0.0186833 0.0197371 0.0201919 0.0206201 0.0208118 0.0208006 0.0207652 0.0211371 0.0205666 0.0225475 0.0208733 0.0165628 0.0168875 0.0133877 0.0129734 0.0162299 0.0178181 0.0191233 0.0198423 0.0202223 0.0202984 0.0203954 0.0202261 0.0199672 0.0196857 0.0193893 0.0191237 0.0188487 0.0186444 0.0184903 0.0185147 0.0186431 0.0187623 0.0193148 0.0195532 0.019711 0.0196835 0.0196816 0.0198424 0.0207273 0.0219036 0.0268769 0.0248436 0.0175599 0.0139943 0.0100433 0.0067766 0.00946976 0.0156272 0.0179182 0.0196066 0.0201665 0.0204451 0.0207731 0.0205545 0.0202982 0.0200448 0.0197945 0.0195747 0.0193569 0.0191826 0.0190152 0.01892 0.0188686 0.0187682 0.0188839 0.0187925 0.018699 0.0184573 0.0182994 0.0179572 0.0183044 0.0181624 0.0214713 0.021122 0.0161166 0.0124672 0.0112352 0.0133619 0.0156694 0.0189401 0.020158 0.0208489 0.0209637 0.0209519 0.0209379 0.0207238 0.0204955 0.0202791 0.0200685 0.0198765 0.0196857 0.0195112 0.0193304 0.01916 0.0189983 0.0187905 0.0186637 0.0184083 0.0181133 0.0176885 0.0171695 0.0164003 0.0153311 0.0134388 0.0113133 0.0123997 0.0140503 0.0121274 0.0156342 0.0215373 0.0218986 0.0217909 0.0215684 0.0215393 0.0213209 0.0211672 0.021116 0.0208687 0.0206412 0.0204403 0.0202511 0.020074 0.0198935 0.0197132 0.0195159 0.0193048 0.0190801 0.0188051 0.0185497 0.0182067 0.0178281 0.0173715 0.0168266 0.0162017 0.0152549 0.0141835 0.0116513 0.0122015 0.0174406 0.0231829 0.0257342 0.0253001 0.0249038 0.0235981 0.0228012 0.0222686 0.0217671 0.02143 0.02111 0.0208879 0.0206914 0.0205206 0.0203575 0.0201986 0.0200292 0.0198484 0.0196432 0.0194125 0.0191583 0.0188589 0.018551 0.0181814 0.017771 0.0173139 0.016772 0.0162545 0.0155917 0.0152616 0.0146976 0.0160326 0.0204496 0.0266509 0.0285847 0.0264965 0.025433 0.0239212 0.0229695 0.0223036 0.0217612 0.0214081 0.021078 0.0208806 0.0207112 0.0205662 0.0204251 0.0202836 0.0201246 0.0199479 0.0197402 0.0195026 0.0192365 0.0189301 0.0186105 0.0182522 0.0178728 0.0174874 0.0170569 0.0167268 0.0163377 0.0164194 0.0165723 0.0180999 0.0210931 0.0245756 0.0260932 0.0251864 0.0244868 0.0235123 0.0227524 0.022167 0.0216779 0.0213477 0.0209694 0.0208208 0.0206926 0.020582 0.0204676 0.020348 0.0202026 0.0200357 0.0198307 0.0195939 0.019326 0.019021 0.018707 0.0183686 0.0180319 0.0177152 0.017392 0.0171928 0.0170049 0.017226 0.0176478 0.0189381 0.0208756 0.0229098 0.0240081 0.0237203 0.0233967 0.0227819 0.0222381 0.0217974 0.0214274 0.0211741 0.0208569 0.0207536 0.020664 0.0205867 0.0204982 0.0204019 0.0202705 0.020117 0.0199168 0.0196852 0.0194194 0.0191152 0.0188115 0.0184919 0.018206 0.0179645 0.0177583 0.0176881 0.0176571 0.0179394 0.0183698 0.01931 0.020577 0.0217815 0.0225518 0.0225505 0.0224348 0.0220909 0.021743 0.0214429 0.0211837 0.0210022 0.0207252 0.0206684 0.0206182 0.0205756 0.0205137 0.0204428 0.0203265 0.0201899 0.0199963 0.0197739 0.0195132 0.0192089 0.0189143 0.0186003 0.0183541 0.0181672 0.0180543 0.0180843 0.0181737 0.0184975 0.0189205 0.0196241 0.0204615 0.0212068 0.0217212 0.021777 0.0217267 0.0215153 0.0212919 0.0210942 0.0209267 0.0208123 
        </DataArray>
        <DataArray Name="vy" NumberOfComponents="1" type="Float32" format="ascii">
0.0115182 0.0114509 0.0114313 0.0114596 0.0115444 0.0116677 0.0118491 0.0120289 0.0122608 0.0124307 0.0126476 0.012749 0.0128419 0.0128112 0.0127088 0.0126036 0.012472 0.0124651 0.0125168 0.0127464 0.0129951 0.0133479 0.013497 0.0135401 0.0133067 0.0130347 0.0127313 0.0124279 0.01218 0.0119527 0.0117745 0.0116259 0.0115242 0.011449 0.0114301 0.0114709 0.0115752 0.0117268 0.0119437 0.0121567 0.0124369 0.0126324 0.0129289 0.0130557 0.0131761 0.0130944 0.012882 0.0126615 0.0123823 0.0122603 0.0122029 0.0123386 0.0125446 0.0128646 0.0131023 0.0132609 0.0132204 0.0130672 0.0128402 0.0125595 0.0122964 0.0120413 0.0118281 0.0116522 0.0115056 0.0114276 0.0114143 0.0114725 0.011598 0.011783 0.0120345 0.0122857 0.0125933 0.0128083 0.0131438 0.01327 0.0134606 0.0133253 0.0130228 0.0126975 0.0122429 0.0119997 0.0118374 0.0119094 0.0121229 0.0124804 0.0128548 0.0131563 0.0132722 0.0131953 0.0129994 0.0127026 0.0124024 0.0121054 0.0118536 0.0116504 0.0114553 0.0113862 0.0113864 0.0114663 0.0116074 0.0118194 0.0120837 0.0123408 0.0126324 0.0128081 0.0133071 0.0135318 0.0138666 0.0136612 0.013158 0.0126398 0.0119847 0.0116295 0.0113809 0.0114226 0.0116974 0.0121818 0.0127723 0.0132748 0.0135167 0.013457 0.0132267 0.0128537 0.0124819 0.0121239 0.0118312 0.011606 0.0114065 0.0113543 0.0113759 0.0114862 0.0116546 0.0119192 0.0122113 0.0124934 0.0126553 0.0127836 0.0131576 0.0132739 0.0139868 0.013701 0.0132103 0.0127031 0.0118074 0.011327 0.0109583 0.0109308 0.0112559 0.0118948 0.0127678 0.0135827 0.0139973 0.0139324 0.0136116 0.0130952 0.0126036 0.0121531 0.011807 0.0115577 0.011331 0.0113219 0.0113867 0.0115521 0.0117666 0.012105 0.0123604 0.0124923 0.0121572 0.0118325 0.0126676 0.0134756 0.0148599 0.014368 0.013212 0.0121197 0.0111736 0.0108034 0.010457 0.0103843 0.010788 0.0117313 0.0130544 0.0143647 0.0148526 0.0146295 0.0140796 0.0133119 0.0126494 0.012092 0.0117052 0.0114549 0.0112701 0.0113151 0.0114492 0.0117098 0.0120492 0.0125068 0.0127088 0.0124678 0.0111944 0.0109799 0.011352 0.0121261 0.0158229 0.0145522 0.0130285 0.0122158 0.0107215 0.0104867 0.010266 0.0100076 0.0103078 0.0114003 0.0132143 0.0153778 0.0161413 0.0157409 0.0148464 0.0137042 0.0127774 0.0120632 0.011615 0.0113601 0.0111608 0.0113119 0.0115809 0.0120306 0.0125595 0.0130693 0.012648 0.0108878 0.00686011 0.00483543 0.00911894 0.0159012 0.0235729 0.0207679 0.0141893 0.00749169 0.00660254 0.00851525 0.00961321 0.00956008 0.00983638 0.0115836 0.0141457 0.017656 0.0179768 0.0167885 0.0153533 0.0137794 0.0126164 0.0118066 0.0113643 0.0111647 0.0110335 0.011284 0.011706 0.0123211 0.0129448 0.0128701 0.0109241 0.00575373 0.0019457 0.00847747 0.0135964 0.0173214 0.0219621 0.0205773 0.0178444 0.0117801 0.00320905 0.00429704 0.00834931 0.00914584 0.00948887 0.0110723 0.0142443 0.0200044 0.020432 0.0182245 0.0159808 0.0139447 0.0124972 0.0115747 0.011119 0.010961 0.0107862 0.0111677 0.0117607 0.0125394 0.0131196 0.0123114 0.00860568 0.00333663 0.00684938 0.0164549 0.0152291 0.0113056 0.011707 0.012927 0.0191157 0.0220432 0.00535614 0.00119286 0.00681109 0.00873139 0.0102448 0.0142238 0.0163966 0.0255596 0.0222326 0.0163139 0.014036 0.0125298 0.0114702 0.0108416 0.0105863 0.0105831 0.0104353 0.0108601 0.0115014 0.012258 0.0125675 0.011038 0.0060358 0.00360666 0.0144374 0.0159846 0.0118425 0.00966874 0.0101258 0.0114289 0.0163604 0.0223933 0.0127888 0.00224917 0.0064321 0.0111612 0.0136923 0.0157754 0.0189978 0.0263991 0.0198947 0.0146792 0.0122508 0.0111087 0.0104727 0.0101464 0.0100659 0.0101682 0.00995257 0.0103285 0.0108809 0.011438 0.0115886 0.00988725 0.0059869 0.00554301 0.0151481 0.0152181 0.0114825 0.00969345 0.00961885 0.0105165 0.0133122 0.0198057 0.0175651 0.00598003 0.00760215 0.0130237 0.0160074 0.0180078 0.0232891 0.0252018 0.0186836 0.0134117 0.010059 0.00945304 0.00925619 0.00936307 0.0094812 0.00967653 0.00939903 0.00962145 0.00995534 0.0102487 0.010454 0.00974496 0.00863474 0.00843643 0.0128553 0.0128157 0.0114325 0.0108225 0.0108255 0.0112317 0.0122608 0.0166431 0.0166487 0.00933594 0.00981328 0.0140694 0.0168084 0.0204648 0.025925 0.0244739 0.0180584 0.012712 0.00889272 0.00848309 0.00852424 0.00884905 0.00903788 0.00921224 0.00889416 0.00885916 0.00885433 0.00878128 0.00899164 0.00941204 0.0103434 0.00949019 0.0114869 0.0124182 0.0125365 0.0123311 0.0121985 0.0120922 0.0121162 0.0137451 0.0151808 0.0119404 0.0131101 0.0164549 0.0181841 0.0195921 0.0251166 0.021636 0.0152962 0.0127433 0.00996699 0.00911017 0.00891495 0.00895175 0.00894577 0.00891767 0.00847935 0.00824386 0.00797021 0.00771018 0.00800963 0.00990583 0.0124843 0.0102092 0.00941446 0.0115893 0.0133702 0.0137825 0.0136787 0.012859 0.0116713 0.00898678 0.0107685 0.0153687 0.0173442 0.0175867 0.0187677 0.0202136 0.0240188 0.0205038 0.0153078 0.0122169 0.0104527 0.00962776 0.00932469 0.0091111 0.00891313 0.00869361 0.00827763 0.0078699 0.00739803 0.00702245 0.00729288 0.01016 0.0143169 0.0117911 0.00787692 0.00984014 0.0136756 0.0151787 0.0152202 0.0135773 0.0106445 0.00577811 0.00919724 0.0181445 0.019278 0.01752 0.018225 0.0187812 0.0209152 0.0183013 0.0158207 0.0135693 0.0121278 0.0109956 0.0103116 0.00967656 0.00917024 0.00869894 0.00824522 0.00776245 0.00725586 0.00678524 0.00699115 0.00939353 0.0149749 0.0152037 0.0079624 0.00777714 0.0126867 0.0157171 0.0161103 0.0133343 0.00837691 0.00348527 0.0128419 0.0198006 0.0181534 0.0161048 0.0168176 0.0175637 0.0194781 0.018061 0.016482 0.0146193 0.0133092 0.0119626 0.0110253 0.0101127 0.00940294 0.0087743 0.00840232 0.00790432 0.00743971 0.0069906 0.0070163 0.00867034 0.0140369 0.0190995 0.0147946 0.00455487 0.00832959 0.0146165 0.0155345 0.01081 0.00338824 0.00270934 0.0188221 0.0213311 0.0167269 0.0148933 0.0158481 0.0166329 0.018552 0.0179459 0.0170391 0.0157909 0.0145279 0.013001 0.0118101 0.010649 0.00975301 0.00899824 0.00866096 0.00821213 0.00783275 0.00748959 0.00729086 0.00803894 0.0111104 0.0172605 0.0204241 0.0115536 0.00519223 0.00936147 0.0106457 0.00633863 0.00607368 0.0120991 0.0196251 0.0175502 0.0137666 0.0133461 0.0149742 0.0160265 0.018746 0.018791 0.0173192 0.0168776 0.0155165 0.0137802 0.0123679 0.0110557 0.0100544 0.00925686 0.00898053 0.0086161 0.00836434 0.00816804 0.00801073 0.00810212 0.00924184 0.0118615 0.0158592 0.0164846 0.00910771 0.0088572 0.00968685 0.00852352 0.0116794 0.015083 0.0140133 0.0121591 0.0115016 0.0126817 0.0153536 0.0161076 0.018933 0.0192775 0.0174949 0.0179298 0.0163545 0.0143438 0.0126971 0.0113209 0.0102906 0.00952296 0.00930409 0.00903184 0.0088815 0.00882857 0.00878952 0.00884497 0.00917786 0.0101808 0.0117917 0.0123448 0.0118796 0.0123408 0.0127413 0.012209 0.0112852 0.0101611 0.0105797 0.010376 0.010781 0.0127497 0.014989 0.015136 0.0205526 0.0216716 0.0142903 0.0193234 0.0183233 0.0152606 0.0130347 0.011526 0.0104681 0.00977229 0.00954574 0.00939103 0.0093349 0.00936942 0.00942696 0.00952633 0.00966815 0.0100978 0.0107458 0.0115715 0.0111207 0.0118136 0.0121093 0.0109899 0.0107524 0.0099347 0.00989336 0.0100115 0.0105898 0.014243 0.0177783 0.0151992 0.0201099 0.0219259 0.0132794 0.0192339 0.0187243 0.0157246 0.0128655 0.011335 0.0103838 0.00987073 0.00977448 0.00971101 0.00971133 0.00977871 0.00986192 0.00997526 0.0100588 0.0102452 0.0104627 0.0107846 0.0108604 0.0112357 0.0113214 0.0106184 0.0102097 0.00962562 0.00990289 0.0103101 0.0116495 0.015689 0.0189362 0.0169021 0.0194065 0.0205972 0.0150939 0.0155804 0.0177134 0.0163942 0.0127571 0.0112307 0.0103303 0.00997963 0.00988629 0.00994554 0.010012 0.010101 0.0101881 0.0102892 0.0103467 0.0104517 0.0104937 0.0106526 0.0105514 0.0106702 0.0106663 0.0102191 0.0101126 0.00971867 0.0097971 0.0099118 0.0106774 0.0131693 0.0175673 0.0210982 0.024701 0.0244209 0.018453 0.0157195 0.0136631 0.0125171 0.0107223 0.010108 0.00986011 0.0098628 0.0100196 0.0101617 0.0102679 0.0103605 0.0104379 0.0105122 0.0105508 0.0106005 0.0105981 0.0106368 0.0105774 0.0105793 0.0105234 0.0102177 0.0100598 0.00970978 0.00959193 0.00927316 0.00912398 0.00946854 0.0156959 0.0261394 0.0302754 0.028171 0.0223259 0.0161894 0.00899732 0.00819708 0.008786 0.00914981 0.00953098 0.00981883 0.0102472 0.0104018 0.0105102 0.0105925 0.0106577 0.0107126 0.0107422 0.010772 0.0107615 0.0107719 0.0107162 0.0106867 0.0106413 0.0104581 0.0103966 0.0101916 0.0102451 0.0101259 0.0105796 0.0104067 0.0146842 0.0263446 0.0334903 0.029701 0.0166163 0.0115849 0.00795229 0.00801677 0.00872443 0.00923234 0.00967691 0.0100145 0.0104825 0.010625 0.0107231 0.0107921 0.0108481 0.0108921 0.0109239 0.0109493 0.0109563 0.0109643 0.0109468 0.0109246 0.0108982 0.0107907 0.0107588 0.0106759 0.010826 0.0110793 0.012024 0.0133147 0.0168065 0.0235624 0.0299956 0.0268215 0.0131056 0.01024 0.0085212 0.008482 0.00903966 0.00948641 0.00993325 0.0102555 0.0107793 0.0108649 0.0109284 0.0109757 0.0110222 0.011063 0.0111047 0.0111404 0.0111732 0.0111998 0.0112193 0.0112249 0.0112354 0.0111976 0.0112156 0.0112198 0.0114095 0.0117473 0.0126276 0.0140459 0.0164757 0.0206166 0.0229335 0.0212406 0.0145868 0.0117205 0.0103177 0.00997691 0.0100593 0.0102194 0.0104602 0.0106419 0.0110142 0.0110577 0.0110956 0.0111292 0.0111733 0.0112189 0.0112777 0.0113319 0.0113963 0.0114472 0.0115037 0.0115364 0.0115753 0.0115794 0.01162 0.0116752 0.0118679 0.0122338 0.0129715 0.0141878 0.0158702 0.0181282 0.0190508 0.0181385 0.0143619 0.0126365 0.0113778 0.0108479 0.0107272 0.0107382 0.0108539 0.0109409 0.0112292 0.011226 0.0112367 0.0112583 0.0113036 0.0113598 0.0114412 0.0115202 0.0116205 0.0117002 0.011794 0.0118521 0.0119139 0.0119399 0.0119814 0.0120406 0.0121838 0.0124741 0.0129724 0.0138315 0.0148236 0.016183 0.0165351 0.0160763 0.0142063 0.0130442 0.0121441 0.011616 0.0113884 0.0112651 0.011246 0.0112299 0.0113723 0.0113413 0.0113367 0.0113553 0.011409 0.0114824 0.0115925 0.0117013 0.0118412 0.0119502 0.0120797 0.0121556 0.0122299 0.0122551 0.0122737 0.0123081 0.0123881 0.0125972 0.0129282 0.0135139 0.0141216 0.0149076 0.0150683 0.0148461 0.0138167 0.0130765 0.0124348 0.0119908 0.0117471 0.0115753 0.0114886 0.0114169 0.0114701 0.0114165 0.011401 0.0114214 0.0114882 0.0115837 0.0117271 0.0118693 0.0120545 0.0121942 0.0123682 0.01246 0.0125428 0.0125473 0.0125141 0.0124882 0.0124717 0.0125727 0.0127463 0.0131185 0.0134842 0.0139822 0.0141043 0.0140358 0.0135212 0.0130681 0.012635 0.0122715 0.0120219 0.0118135 0.0116706 0.0115523 
        </DataArray>
        <DataArray Name="vz" NumberOfComponents="1" type="Float32" format="ascii">
0 0 0 0 0 0 0 0 0 0 0 0 0 0 0 0 0 0 0 0 0 0 0 0 0 0 0 0 0 0 0 0 0 0 0 0 0 0 0 0 0 0 0 0 0 0 0 0 0 0 0 0 0 0 0 0 0 0 0 0 0 0 0 0 0 0 0 0 0 0 0 0 0 0 0 0 0 0 0 0 0 0 0 0 0 0 0 0 0 0 0 0 0 0 0 0 0 0 0 0 0 0 0 0 0 0 0 0 0 0 0 0 0 0 0 0 0 0 0 0 0 0 0 0 0 0 0 0 0 0 0 0 0 0 0 0 0 0 0 0 0 0 0 0 0 0 0 0 0 0 0 0 0 0 0 0 0 0 0 0 0 0 0 0 0 0 0 0 0 0 0 0 0 0 0 0 0 0 0 0 0 0 0 0 0 0 0 0 0 0 0 0 0 0 0 0 0 0 0 0 0 0 0 0 0 0 0 0 0 0 0 0 0 0 0 0 0 0 0 0 0 0 0 0 0 0 0 0 0 0 0 0 0 0 0 0 0 0 0 0 0 0 0 0 0 0 0 0 0 0 0 0 0 0 0 0 0 0 0 0 0 0 0 0 0 0 0 0 0 0 0 0 0 0 0 0 0 0 0 0 0 0 0 0 0 0 0 0 0 0 0 0 0 0 0 0 0 0 0 0 0 0 0 0 0 0 0 0 0 0 0 0 0 0 0 0 0 0 0 0 0 0 0 0 0 0 0 0 0 0 0 0 0 0 0 0 0 0 0 0 0 0 0 0 0 0 0 0 0 0 0 0 0 0 0 0 0 0 0 0 0 0 0 0 0 0 0 0 0 0 0 0 0 0 0 0 0 0 0 0 0 0 0 0 0 0 0 0 0 0 0 0 0 0 0 0 0 0 0 0 0 0 0 0 0 0 0 0 0 0 0 0 0 0 0 0 0 0 0 0 0 0 0 0 0 0 0 0 0 0 0 0 0 0 0 0 0 0 0 0 0 0 0 0 0 0 0 0 0 0 0 0 0 0 0 0 0 0 0 0 0 0 0 0 0 0 0 0 0 0 0 0 0 0 0 0 0 0 0 0 0 0 0 0 0 0 0 0 0 0 0 0 0 0 0 0 0 0 0 0 0 0 0 0 0 0 0 0 0 0 0 0 0 0 0 0 0 0 0 0 0 0 0 0 0 0 0 0 0 0 0 0 0 0 0 0 0 0 0 0 0 0 0 0 0 0 0 0 0 0 0 0 0 0 0 0 0 0 0 0 0 0 0 0 0 0 0 0 0 0 0 0 0 0 0 0 0 0 0 0 0 0 0 0 0 0 0 0 0 0 0 0 0 0 0 0 0 0 0 0 0 0 0 0 0 0 0 0 0 0 0 0 0 0 0 0 0 0 0 0 0 0 0 0 0 0 0 0 0 0 0 0 0 0 0 0 0 0 0 0 0 0 0 0 0 0 0 0 0 0 0 0 0 0 0 0 0 0 0 0 0 0 0 0 0 0 0 0 0 0 0 0 0 0 0 0 0 0 0 0 0 0 0 0 0 0 0 0 0 0 0 0 0 0 0 0 0 0 0 0 0 0 0 0 0 0 0 0 0 0 0 0 0 0 0 0 0 0 0 0 0 0 0 0 0 0 0 0 0 0 0 0 0 0 0 0 0 0 0 0 0 0 0 0 0 0 0 0 0 0 0 0 0 0 0 0 0 0 0 0 0 0 0 0 0 0 0 0 0 0 0 0 0 0 0 0 0 0 0 0 0 0 0 0 0 0 0 0 0 0 0 0 0 0 0 0 0 0 0 0 0 0 0 0 0 0 0 0 0 0 0 0 0 0 0 0 0 0 0 0 0 0 0 0 0 0 0 0 0 0 0 0 0 0 0 0 0 0 0 0 0 0 0 0 0 0 0 0 0 0 0 0 0 0 0 0 0 0 0 0 0 0 0 0 0 0 0 0 0 0 0 0 0 0 0 0 0 0 0 0 0 0 0 0 0 0 0 0 0 0 0 0 0 0 0 0 0 0 0 0 0 0 0 0 0 0 0 0 0 0 0 0 0 0 0 0 0 0 0 0 0 0 0 0 0 0 0 0 0 0 0 0 0 0 0 0 0 0 0 0 0 0 0 0 0 0 0 0 0 0 0 0 0 0 0 0 0 0 0 0 0 0 0 0 0 0 0 0 0 0 0 0 0 0 0 0 0 0 0 0 0 0 0 0 0 0 0 0 0 0 0 0 0 0 0 0 0 0 0 0 0 0 0 0 0 0 0 0 0 0 0 0 0 0 0 0 0 0 0 0 0 0 0 0 
        </DataArray>
        <DataArray Name="p" NumberOfComponents="1" type="Float32" format="ascii">