<?xml version="1.0"?>
<VTKFile type="StructuredGrid" version="0.1" byte_order="LittleEndian">
  <StructuredGrid WholeExtent="0 32 0 32 0 1">
    <Piece Extent="0 32 0 32 0 1">
      <PointData>
      </PointData>
      <CellData>
        <DataArray Name="vx" NumberOfComponents="1" type="Float32" format="ascii">
0.0212205 0.02131 0.0214068 0.0215078 0.0215836 0.0216311 0.0216072 0.0215107 0.021289 0.0209544 0.0204614 0.0198437 0.0191518 0.0184197 0.0177814 0.0172965 0.0170492 0.0170299 0.0171989 0.0175668 0.018066 0.0186981 0.0193767 0.0200541 0.0205708 0.0209002 0.0210804 0.0211061 0.021123 0.0211019 0.0211183 0.0211542 0.0210587 0.0211897 0.021329 0.0214762 0.021603 0.0217105 0.0217493 0.0217199 0.0215515 0.0212625 0.020759 0.0201086 0.0193496 0.0185037 0.0177673 0.0172127 0.0169938 0.017049 0.0173242 0.0177829 0.018337 0.0189471 0.0195338 0.0200533 0.0204132 0.0206293 0.0207418 0.0207665 0.0207953 0.0208144 0.0208707 0.0209502 0.0208668 0.0210262 0.0211963 0.0213817 0.021557 0.0217324 0.0218494 0.0219231 0.0218536 0.0216832 0.0212153 0.020525 0.0196552 0.0186057 0.0176691 0.017004 0.0168495 0.0170149 0.0174296 0.0180057 0.0186486 0.019268 0.0198048 0.0202067 0.020412 0.0205028 0.0205124 0.0204975 0.0205094 0.0205432 0.0206219 0.0207295 0.020617 0.0207926 0.0209828 0.0211986 0.02142 0.0216642 0.0218714 0.0220634 0.0221462 0.0221531 0.0217244 0.021079 0.0201669 0.0188913 0.0176968 0.0168139 0.0166941 0.0169868 0.0175488 0.0182596 0.019028 0.0196963 0.0202348 0.0205549 0.0205877 0.0205159 0.0203694 0.0202695 0.0202319 0.020256 0.0203412 0.0204629 0.020313 0.020485 0.0206722 0.0208925 0.0211282 0.0214143 0.0216917 0.0220655 0.0224643 0.0229997 0.0228762 0.0222407 0.0210788 0.0192048 0.0173152 0.0161975 0.0164662 0.0170941 0.0178905 0.0187396 0.0196417 0.0203255 0.0208608 0.0210859 0.0208722 0.0205928 0.0202411 0.0200352 0.0199366 0.0199457 0.0200316 0.020157 0.0199303 0.0200878 0.0202555 0.0204581 0.0206747 0.0209735 0.0213603 0.0220557 0.0232811 0.0246698 0.0247489 0.0242389 0.0227314 0.0197932 0.0167864 0.0150142 0.0157396 0.0171178 0.0182785 0.0192915 0.0203469 0.0210615 0.0216808 0.0218579 0.0213435 0.0207811 0.0201322 0.0197776 0.0195905 0.0195756 0.0196566 0.0197804 0.0195282 0.0196504 0.0197653 0.0198962 0.020015 0.0202874 0.0208619 0.0224295 0.0254644 0.0291926 0.03023 0.0286714 0.0253703 0.0196665 0.0128925 0.0102608 0.0135557 0.0169774 0.0190189 0.0202295 0.0213636 0.0217713 0.0223573 0.0225078 0.0215521 0.0207593 0.0198614 0.0194357 0.0192043 0.0191927 0.0192776 0.0193961 0.019067 0.0191617 0.019216 0.0192775 0.0193066 0.0197481 0.0210371 0.0245299 0.0315386 0.0351574 0.0323532 0.0279183 0.023709 0.0187774 0.0110814 0.00485177 0.00768098 0.0148755 0.0187962 0.0205424 0.0217497 0.0216807 0.0223296 0.022579 0.0212946 0.020327 0.0192036 0.0188473 0.0186424 0.01869 0.0188089 0.0189422 0.0187097 0.0187755 0.018781 0.0187856 0.0187834 0.0194804 0.0214499 0.0266565 0.0331725 0.027701 0.0185875 0.0169122 0.0180988 0.0206674 0.0235648 0.0149185 0.00793207 0.0149647 0.0192143 0.0209611 0.0216281 0.0190452 0.0189084 0.0198953 0.0186084 0.0184654 0.0178398 0.0180298 0.0180813 0.0182735 0.0184486 0.0185947 0.0183297 0.0184101 0.0183955 0.0184164 0.0183014 0.0192093 0.0202372 0.0255309 0.0224604 0.0123881 0.0111842 0.0134977 0.0183163 0.0245562 0.0315325 0.0312212 0.0209032 0.0171608 0.0204653 0.020193 0.0187646 0.0142173 0.0129826 0.0132604 0.014842 0.016714 0.0158543 0.0167685 0.0172097 0.0176643 0.0179727 0.0181853 0.0181912 0.0182821 0.0183233 0.0183792 0.0183761 0.0186982 0.0188569 0.0189239 0.0120411 0.008067 0.0134973 0.0168568 0.0203886 0.0250467 0.0298852 0.0377664 0.0328688 0.0231569 0.0228565 0.0216394 0.018997 0.019194 0.0182977 0.0144078 0.0184643 0.0191751 0.0165708 0.0168785 0.0171998 0.0175977 0.0178711 0.0180545 0.0180267 0.0181621 0.0182998 0.0184226 0.0185121 0.0180463 0.0167956 0.0118278 0.00832464 0.0112757 0.0156662 0.0184901 0.0207918 0.0240603 0.0278887 0.0354099 0.0380789 0.0320468 0.026528 0.0238471 0.0203614 0.0205775 0.0175114 0.0137802 0.0136305 0.013503 0.015525 0.0159507 0.0168897 0.0173178 0.0176627 0.017858 0.0180462 0.0181804 0.0183483 0.0185186 0.0184838 0.0174399 0.0140415 0.00707987 0.00676393 0.0129426 0.0166093 0.0190395 0.0206522 0.0228881 0.0256257 0.0307853 0.0368242 0.0348467 0.0281994 0.0247684 0.0221475 0.0215394 0.0171449 0.014471 0.00776984 0.0060999 0.0139381 0.01558 0.0170219 0.017512 0.0177838 0.0179201 0.018038 0.0181267 0.0182802 0.0184229 0.0182962 0.0170764 0.0126872 0.00656929 0.00820176 0.0140901 0.0168851 0.0189455 0.020387 0.0223522 0.0247984 0.0290073 0.0355301 0.035296 0.0292225 0.0254777 0.0232395 0.0223087 0.020288 0.0193803 0.0199105 0.0194979 0.0190697 0.0188149 0.0184818 0.0182089 0.0180682 0.0180081 0.0180971 0.0180953 0.0181733 0.0182294 0.0181929 0.0172525 0.0145582 0.00934665 0.00917261 0.0140019 0.0167049 0.0186724 0.0201783 0.0221341 0.0247853 0.0291959 0.0358558 0.0353724 0.0291243 0.0257575 0.0242856 0.0230491 0.0229192 0.0228785 0.0230072 0.023026 0.0211826 0.0201624 0.0193144 0.018737 0.0183767 0.0181753 0.0181204 0.0180217 0.0180053 0.017922 0.0180234 0.0175161 0.0174236 0.0130329 0.00943039 0.0122765 0.0150945 0.0176352 0.0198357 0.0226526 0.0262574 0.0321528 0.0365776 0.0330162 0.0274165 0.0252848 0.0246875 0.0241315 0.0248137 0.0256519 0.0252302 0.024321 0.0224664 0.021063 0.0198786 0.0190986 0.0185875 0.0182861 0.0182349 0.0180545 0.0179415 0.0177785 0.017907 0.018147 0.0196105 0.0192397 0.0119925 0.00872771 0.0126468 0.0161507 0.0199658 0.0243297 0.0290694 0.0350679 0.033234 0.0265531 0.0248836 0.024459 0.0250757 0.0251185 0.0258388 0.0262679 0.0255718 0.0243975 0.0225804 0.0212454 0.0200828 0.0193327 0.0187996 0.0184617 0.0183757 0.0181381 0.0179044 0.0176168 0.0174586 0.0177984 0.0191453 0.0217323 0.0150747 0.00590329 0.00692002 0.012484 0.0200304 0.027231 0.0331199 0.0307782 0.0211691 0.0184348 0.0218141 0.0234884 0.0249703 0.0251596 0.0259192 0.026072 0.0253499 0.0242523 0.0223375 0.0211607 0.0200693 0.0194343 0.0189481 0.0186301 0.0186717 0.0184268 0.0181802 0.0178634 0.0177031 0.0179043 0.0197166 0.0232697 0.0258654 0.0185089 0.0100506 0.0127636 0.0213329 0.0285495 0.0303574 0.0205753 0.0123556 0.0168737 0.0212098 0.0235975 0.0250542 0.0247996 0.0254805 0.0255982 0.0248488 0.0237735 0.0216879 0.0208132 0.0199044 0.0195058 0.0191455 0.018903 0.0189927 0.0187931 0.0185594 0.0182746 0.0180488 0.0180864 0.0192618 0.0226149 0.0284683 0.0315394 0.0277523 0.0213362 0.0193387 0.0151164 0.00700155 0.00474626 0.00921439 0.0161647 0.020761 0.0229231 0.0242978 0.0228014 0.0242281 0.0251695 0.0247631 0.0242354 0.0211012 0.0202659 0.0194972 0.0193888 0.0192417 0.0191459 0.0194473 0.0193048 0.0191221 0.0189063 0.0187245 0.0186336 0.0190643 0.0206927 0.0240925 0.0288765 0.0307147 0.0270361 0.0185376 0.0108779 0.00723838 0.00870314 0.0142021 0.0182778 0.0209501 0.022055 0.0236065 0.0211136 0.0214669 0.0225406 0.0224087 0.0223389 0.0196031 0.0196347 0.0191642 0.0193978 0.0194674 0.0195174 0.0198279 0.0197815 0.019674 0.0195519 0.0194613 0.0194265 0.0196103 0.020248 0.0217122 0.023724 0.0250078 0.0238371 0.018781 0.0148441 0.0140912 0.0145526 0.0166133 0.0183544 0.019831 0.0207526 0.0224252 0.0237037 0.0188921 0.0153139 0.0143756 0.0131786 0.0151726 0.0171973 0.0181507 0.018992 0.0194854 0.0197587 0.0203158 0.0203052 0.0202323 0.0201586 0.0201175 0.0201318 0.0202327 0.0205123 0.0210285 0.0218311 0.022187 0.021282 0.0190191 0.0170227 0.0161309 0.0159703 0.0166654 0.0171066 0.0171526 0.0171546 0.0147583 0.0161898 0.0151237 0.0123298 0.0107851 0.00987278 0.0136337 0.0161028 0.0180149 0.0191634 0.0198512 0.0202013 0.0207007 0.0207121 0.0206635 0.0206219 0.0206036 0.0206291 0.0206933 0.0207945 0.0209313 0.0210384 0.0209093 0.0202179 0.0188249 0.0175432 0.0168152 0.0163302 0.0163567 0.0164287 0.0164372 0.0167887 0.0147094 0.0153705 0.0153349 0.0128163 0.0107191 0.0102924 0.0135293 0.0160837 0.0183142 0.0195867 0.020249 0.0205946 0.0211116 0.021091 0.02103 0.0209822 0.020949 0.0209461 0.0209491 0.0209455 0.0208896 0.0207363 0.0203734 0.0196408 0.0186108 0.0175584 0.0167742 0.0161573 0.0158744 0.0156185 0.0153249 0.0155391 0.0145143 0.0152508 0.0150417 0.012838 0.0116072 0.0100576 0.0127497 0.0169452 0.0190353 0.0203043 0.0208195 0.0210672 0.0214556 0.0213566 0.0212671 0.0212072 0.0211576 0.0211213 0.0210689 0.0209781 0.0208106 0.0205149 0.0200557 0.0193565 0.0184806 0.017565 0.0167908 0.0161062 0.0156218 0.0151956 0.0148827 0.014809 0.0163513 0.0175322 0.0166361 0.0177843 0.0189172 0.021327 0.0231332 0.0221562 0.0221874 0.0218867 0.0217344 0.021587 0.0216684 0.0215323 0.0214273 0.0213547 0.0212872 0.0212203 0.0211223 0.0209731 0.0207387 0.0203834 0.0198925 0.0192242 0.0184507 0.017628 0.0168812 0.0161964 0.0156335 0.0151202 0.0146644 0.0142037 0.0147294 0.0155431 0.0169611 0.0197267 0.0228946 0.0265447 0.0264915 0.0241577 0.02329 0.0225363 0.0221567 0.0218648 0.0217323 0.0215892 0.0214886 0.0214199 0.0213505 0.0212704 0.0211482 0.0209659 0.0206968 0.0203161 0.0198223 0.0191971 0.0184952 0.017751 0.0170456 0.0163918 0.0158273 0.0153604 0.0150185 0.0147653 0.0150207 0.0154693 0.0177485 0.0215143 0.0244626 0.0265079 0.0259549 0.0244407 0.0236027 0.0227836 0.0223105 0.0219555 0.0217106 0.0215946 0.0215152 0.02146 0.0213969 0.0213151 0.0211838 0.0209884 0.0207052 0.0203198 0.0198342 0.0192439 0.0185962 0.0179178 0.0172706 0.0166839 0.0161794 0.0158092 0.0155846 0.0156081 0.0160821 0.0169482 0.0190024 0.0220119 0.0240744 0.0251877 0.0248483 0.0238587 0.0232313 0.0225829 0.0221922 0.0218947 0.0216086 0.0215407 0.0214997 0.0214741 0.0214332 0.0213664 0.0212429 0.021051 0.0207675 0.0203857 0.019907 0.0193381 0.0187208 0.0180825 0.0174797 0.0169508 0.0165175 0.0162412 0.0161249 0.0162863 0.0168269 0.0177995 0.0193664 0.0214207 0.0228015 0.0234967 0.0234859 0.0230003 0.022641 0.0222082 0.0219377 0.0217301 0.0214941 0.0214799 0.0214822 0.0214928 0.0214821 0.0214415 0.0213377 0.0211626 0.0208885 0.020515 0.0200377 0.0194713 0.018859 0.0182312 0.0176551 0.0171743 0.0168173 0.0166364 0.0166132 0.0168473 0.0173495 0.0181884 0.0193292 0.0206786 0.0216692 0.0222407 0.0223966 0.022205 0.0220404 0.0218012 0.0216553 0.0215461 0.0213578 0.0213987 0.0214498 0.0215051 0.0215353 0.0215336 0.0214629 0.0213175 0.0210612 0.0206992 0.0202142 0.0196324 0.0189979 0.0183432 0.0177593 0.0172926 0.0169944 0.0168946 0.0169651 0.0172622 0.0177494 0.0184649 0.019321 0.020262 0.0209744 0.0214117 0.021614 0.0215741 0.0215294 0.0214233 0.0213723 0.0213451 
        </DataArray>
        <DataArray Name="vy" NumberOfComponents="1" type="Float32" format="ascii">
0.0110231 0.0109609 0.0109561 0.0110135 0.0111473 0.0113545 0.0116462 0.0119949 0.0124073 0.0128125 0.013227 0.0135034 0.0137068 0.0136973 0.0135486 0.0132477 0.0129127 0.0126442 0.0124727 0.0124697 0.0125649 0.0127632 0.0128958 0.0129575 0.0127818 0.0125749 0.0122336 0.0119622 0.0116847 0.0114643 0.0112778 0.0111291 0.0109219 0.0108437 0.0108328 0.0108984 0.0110565 0.0113098 0.0116737 0.0121201 0.012664 0.0132145 0.0138084 0.0142024 0.0144889 0.0144415 0.0141551 0.0136012 0.0130056 0.0125064 0.0121415 0.011997 0.0119884 0.0121523 0.0122927 0.012456 0.0124317 0.0123601 0.0121436 0.0119233 0.0116701 0.0114374 0.0112283 0.0110521 0.0107877 0.0106925 0.0106724 0.0107405 0.0109153 0.011208 0.0116399 0.0121903 0.0128694 0.0135988 0.0143877 0.0148953 0.0153137 0.015258 0.0148512 0.014015 0.013088 0.0123167 0.0117398 0.0114643 0.0113903 0.0115771 0.0117792 0.0120865 0.0122025 0.0122465 0.0121057 0.011905 0.0116477 0.0113885 0.0111492 0.010943 0.0106234 0.0105109 0.0104762 0.010534 0.0107051 0.0110103 0.0114835 0.0121019 0.012909 0.0138343 0.0149912 0.015767 0.016444 0.0164252 0.0157983 0.0143885 0.0129928 0.0119086 0.0111372 0.0107835 0.0107094 0.0110176 0.0113347 0.0118634 0.0121192 0.0122614 0.0121427 0.0119194 0.0116223 0.0113179 0.01104 0.0108025 0.0104634 0.0103283 0.0102706 0.0103024 0.0104545 0.010752 0.0112481 0.01191 0.0127838 0.0140272 0.0154735 0.0164249 0.0174913 0.0176801 0.0169477 0.0150282 0.0129386 0.0114783 0.0104665 0.0100042 0.00992486 0.0103966 0.0108888 0.0117641 0.0122194 0.012491 0.0123502 0.0120559 0.0116682 0.0112858 0.0109494 0.0106709 0.0102934 0.0101472 0.0100703 0.0100724 0.0101896 0.0104318 0.0108428 0.0112936 0.0119797 0.0133461 0.0157969 0.017592 0.0195375 0.0201891 0.0189391 0.0151269 0.0120731 0.0104572 0.00945943 0.00906673 0.00908589 0.00987492 0.0105099 0.0118996 0.0125484 0.0129162 0.0126628 0.0122243 0.0116958 0.011216 0.0108222 0.0105148 0.0101643 0.0100034 0.00990874 0.00987475 0.00995398 0.010044 0.0101862 0.00998369 0.0101252 0.0127037 0.0159262 0.0184213 0.0218864 0.0235151 0.0217262 0.0162165 0.0108342 0.00897562 0.00825402 0.00795863 0.0080593 0.00910869 0.0100194 0.0121897 0.0132264 0.0138063 0.0133359 0.0126476 0.0118777 0.0112394 0.0107551 0.0104045 0.0100363 0.00990294 0.00983368 0.00981184 0.00982637 0.00955622 0.0087404 0.00664632 0.00517842 0.00824884 0.016339 0.0226686 0.028509 0.032702 0.0288262 0.0140781 0.00524679 0.00504616 0.00617054 0.00686737 0.00750753 0.00911826 0.00961324 0.0128055 0.0141003 0.0146749 0.013868 0.012889 0.0118925 0.0111317 0.0106027 0.0102543 0.00995832 0.00985198 0.00981311 0.00975839 0.00953646 0.00824124 0.00547961 -0.000539516 -0.000928429 0.0127855 0.0232556 0.0267876 0.0309868 0.0356446 0.0354668 0.0202251 0.000503908 -0.00223963 0.00243383 0.00494701 0.00667159 0.0085017 0.00906338 0.0133754 0.0153076 0.0162474 0.0147596 0.0133425 0.0120448 0.0111158 0.0105191 0.0101592 0.00985001 0.00981803 0.00983958 0.00978619 0.00918278 0.00686859 0.00160427 -0.00478527 0.00355169 0.0233085 0.0263851 0.0234322 0.0246327 0.027748 0.0338923 0.0304321 0.00479317 -0.00577422 0.000219244 0.00480664 0.0095758 0.0123485 0.00863575 0.0131108 0.0149666 0.0156381 0.0140171 0.0126801 0.0115548 0.0107475 0.0102515 0.00997676 0.00975167 0.00978229 0.00984489 0.00981097 0.00889079 0.00614544 -0.000338962 -0.00313177 0.0125296 0.0241057 0.0220573 0.0194452 0.0199967 0.02253 0.0283723 0.0309922 0.0150815 -0.00272763 -0.000377276 0.00637487 0.012229 0.0138525 0.00978189 0.0121873 0.0115586 0.0163227 0.0144634 0.0121704 0.0111293 0.0103973 0.0100139 0.00981645 0.00961462 0.0096662 0.00974509 0.00969138 0.00885372 0.00625832 0.00130342 0.00100777 0.0155047 0.0211155 0.0183289 0.0165061 0.0165884 0.0181814 0.0216721 0.0265391 0.0206075 0.00340857 0.00219752 0.00853355 0.0130672 0.0130396 0.0135138 0.0128163 0.00857872 0.0182365 0.0159344 0.0122618 0.0108013 0.0100949 0.00977819 0.00964309 0.00945394 0.00951105 0.00959356 0.00961213 0.00927529 0.00799059 0.00588744 0.00556276 0.0135791 0.0159898 0.0148599 0.0142349 0.0144586 0.0153551 0.0170914 0.020397 0.018763 0.00892316 0.00763723 0.0120213 0.0155422 0.0159283 0.0177807 0.0164231 0.0140798 0.0132289 0.0115372 0.0102436 0.00962912 0.00951269 0.0094565 0.00944269 0.00935621 0.00935831 0.00940469 0.00955977 0.00992411 0.010807 0.0115425 0.00853942 0.00934625 0.0113233 0.01222 0.0124696 0.0127549 0.0131979 0.0138256 0.0154102 0.0159957 0.0125567 0.012244 0.0149431 0.0167067 0.0174408 0.0209066 0.0183436 0.0180081 0.0107219 0.00915495 0.00934363 0.00934698 0.00943698 0.00943135 0.00939309 0.0093301 0.00926385 0.00927461 0.00955596 0.0105411 0.013357 0.0162241 0.0104575 0.00573349 0.00767574 0.00997784 0.0108037 0.0110477 0.0109542 0.0104724 0.0099027 0.0122736 0.0157055 0.0171778 0.017822 0.0182643 0.018979 0.0214091 0.0179814 0.015893 0.0126924 0.0110619 0.0103574 0.00998715 0.00980767 0.00962197 0.00945808 0.00943015 0.00928865 0.00926604 0.00958698 0.0109152 0.0146267 0.0194858 0.0146467 0.00393591 0.00381297 0.0074135 0.00901121 0.00928556 0.00863203 0.00670351 0.00432374 0.00915044 0.0197437 0.0217801 0.0199838 0.0193075 0.0192735 0.0201753 0.0183295 0.0162601 0.0137704 0.0123302 0.0115272 0.0108949 0.0104282 0.0100102 0.00967434 0.00959071 0.0093852 0.00933419 0.00954639 0.0107754 0.0140569 0.0199665 0.0188821 0.00611436 0.00261928 0.00466881 0.00606051 0.00586132 0.00446788 0.000829596 -0.000130742 0.0111485 0.0255521 0.0246023 0.0207375 0.0192444 0.0190996 0.0193848 0.0185628 0.0169057 0.0154977 0.0139839 0.0128998 0.0118857 0.0110921 0.0104325 0.00993315 0.00982538 0.00959724 0.00954241 0.00969516 0.0105763 0.0131548 0.0185178 0.022385 0.0149245 0.00223911 4.77736e-05 0.00180755 0.00124758 -0.000131272 -0.003873 -6.71429e-05 0.0178554 0.0278286 0.0234738 0.0197535 0.0184344 0.0187314 0.0187582 0.0189432 0.0177691 0.0170497 0.0153998 0.0141044 0.01277 0.0117143 0.0108581 0.0102346 0.0100848 0.00986457 0.00983569 0.00997931 0.0105494 0.0122536 0.0161774 0.0219819 0.0225939 0.0110228 -0.00143875 -0.00766027 -0.00970695 -0.00921856 -0.00297449 0.0122927 0.0240218 0.0246976 0.0200952 0.0178587 0.0174751 0.0185241 0.0179498 0.0194463 0.0183881 0.0187226 0.0169301 0.0152808 0.0135878 0.0122669 0.011243 0.0105299 0.0102821 0.0100973 0.0101012 0.0102194 0.0105415 0.0112444 0.0131765 0.0162967 0.0195588 0.0174386 0.00554124 -0.00821098 -0.014164 -0.00727913 0.00373316 0.0175221 0.0207584 0.0185906 0.0163118 0.0159123 0.0166686 0.0188008 0.0177319 0.0200836 0.0194177 0.0204654 0.0181092 0.0159719 0.0139487 0.0124783 0.011408 0.010701 0.0104465 0.0103126 0.0103491 0.0104933 0.0107194 0.0110245 0.0116777 0.012726 0.013787 0.0126412 0.00842795 0.000331199 -0.00468702 0.00227515 0.00695012 0.0111683 0.0132698 0.0135237 0.0136077 0.0149204 0.0173676 0.019506 0.0141097 0.0191544 0.0189652 0.022694 0.0207115 0.0171058 0.0144234 0.0126148 0.0114926 0.0108161 0.0104739 0.0104213 0.0104911 0.0106332 0.0108071 0.0109332 0.0111007 0.0112411 0.0113083 0.0105036 0.00761702 0.00410812 0.00223813 0.00430202 0.00656915 0.00966157 0.0109363 0.0115023 0.0120119 0.0132347 0.0159623 0.0223332 0.0164126 0.0203123 0.0192128 0.0235602 0.0203644 0.0165796 0.0140114 0.0122051 0.0112318 0.0107166 0.0104296 0.0104789 0.0105803 0.0107137 0.0108353 0.0108817 0.0108411 0.0106396 0.0102834 0.00945437 0.0080626 0.00622222 0.00506524 0.00627598 0.0072585 0.00870987 0.00975494 0.0105751 0.0115832 0.0131229 0.0150932 0.022684 0.0214239 0.0229331 0.0210614 0.02268 0.0161467 0.0141937 0.0125175 0.0113176 0.0107132 0.0104942 0.0103715 0.0105049 0.0106324 0.0107502 0.0108271 0.010825 0.0107113 0.0104426 0.0099897 0.0093099 0.00826767 0.00727447 0.00670261 0.00715965 0.00782009 0.00888853 0.00976605 0.0106485 0.0119725 0.0145465 0.0172415 0.0209448 0.0221786 0.0242115 0.0215435 0.0203637 0.0142904 0.0127357 0.0111793 0.0104792 0.0102364 0.0102724 0.0102978 0.0105152 0.0106703 0.010778 0.0108255 0.0107967 0.010665 0.0104067 0.010015 0.0094807 0.00883898 0.00822821 0.00788672 0.00812939 0.00852263 0.00913442 0.00979737 0.0104946 0.0116845 0.0144861 0.0186601 0.0200596 0.0247977 0.0267997 0.0245911 0.0197772 0.0103572 0.00856532 0.00883607 0.00919083 0.00963625 0.0100069 0.0103634 0.0105914 0.0107398 0.0108293 0.0108585 0.0108239 0.0107064 0.010502 0.010199 0.00982474 0.00939304 0.0090299 0.00885299 0.00897077 0.00927076 0.0097041 0.0102784 0.0109112 0.0119957 0.0141176 0.0180202 0.0195974 0.0258475 0.0267633 0.0252095 0.0182026 0.00823064 0.00677217 0.00804782 0.00885611 0.0095498 0.0100228 0.0105129 0.010698 0.0108192 0.0108894 0.0109124 0.0108877 0.010806 0.010667 0.0104709 0.0102348 0.00998989 0.00978658 0.00970745 0.00978682 0.0100032 0.0103066 0.0107793 0.0113604 0.0123385 0.013734 0.0163122 0.0194542 0.0246787 0.0239894 0.0217133 0.0148878 0.00982777 0.0088724 0.00905253 0.00943987 0.00988241 0.0102378 0.0107098 0.0108332 0.010916 0.0109661 0.0109896 0.0109856 0.0109507 0.0108839 0.0107876 0.0106719 0.0105594 0.010473 0.010468 0.0105386 0.0107138 0.0109414 0.0113298 0.0118429 0.0127588 0.0140184 0.0160232 0.0180623 0.0213799 0.0207401 0.0184473 0.0143806 0.0109254 0.0100385 0.00986857 0.0100383 0.0102941 0.0105268 0.0108777 0.0109402 0.0109904 0.0110294 0.0110641 0.011091 0.0111114 0.0111191 0.01112 0.0111093 0.0111081 0.0111104 0.0111582 0.0112298 0.0113636 0.0115271 0.0118118 0.0122127 0.01292 0.0139009 0.0153815 0.0167689 0.0184045 0.0178688 0.0161385 0.0138245 0.0118705 0.0110984 0.0107025 0.0106448 0.0107015 0.0107921 0.0110139 0.0110253 0.0110482 0.0110811 0.0111321 0.0111956 0.011276 0.0113606 0.0114562 0.0115427 0.0116383 0.0117129 0.0118009 0.0118672 0.0119527 0.0120377 0.0121975 0.0124497 0.0129065 0.0135729 0.01451 0.0153763 0.0161899 0.0159247 0.0149232 0.013611 0.0122894 0.0116473 0.0112253 0.011073 0.0110146 0.0110057 0.0110718 0.0110508 0.0110599 0.0110977 0.0111738 0.0112818 0.0114283 0.0115943 0.0117865 0.0119688 0.0121569 0.0122942 0.0124152 0.0124672 0.0124944 0.0124876 0.0125141 0.0126145 0.0128488 0.0132442 0.0137891 0.0143128 0.014709 0.014585 0.0139442 0.0132148 0.012378 0.011897 0.0115154 0.0113165 0.0111895 0.0111147 0.0110793 0.0110333 0.0110326 0.0110781 0.0111816 0.0113372 0.0115541 0.0118071 0.012105 0.012392 0.0126868 0.0128922 0.0130485 0.0130722 0.0130164 0.0128769 0.0127363 0.0126604 0.0126833 0.0128587 0.0131297 0.0134491 0.0136578 0.0136406 0.0132884 0.0128787 0.0123414 0.0119815 0.0116576 0.0114434 0.0112791 0.0111598 
        </DataArray>
        <DataArray Name="vz" NumberOfComponents="1" type="Float32" format="ascii">
0 0 0 0 0 0 0 0 0 0 0 0 0 0 0 0 0 0 0 0 0 0 0 0 0 0 0 0 0 0 0 0 0 0 0 0 0 0 0 0 0 0 0 0 0 0 0 0 0 0 0 0 0 0 0 0 0 0 0 0 0 0 0 0 0 0 0 0 0 0 0 0 0 0 0 0 0 0 0 0 0 0 0 0 0 0 0 0 0 0 0 0 0 0 0 0 0 0 0 0 0 0 0 0 0 0 0 0 0 0 0 0 0 0 0 0 0 0 0 0 0 0 0 0 0 0 0 0 0 0 0 0 0 0 0 0 0 0 0 0 0 0 0 0 0 0 0 0 0 0 0 0 0 0 0 0 0 0 0 0 0 0 0 0 0 0 0 0 0 0 0 0 0 0 0 0 0 0 0 0 0 0 0 0 0 0 0 0 0 0 0 0 0 0 0 0 0 0 0 0 0 0 0 0 0 0 0 0 0 0 0 0 0 0 0 0 0 0 0 0 0 0 0 0 0 0 0 0 0 0 0 0 0 0 0 0 0 0 0 0 0 0 0 0 0 0 0 0 0 0 0 0 0 0 0 0 0 0 0 0 0 0 0 0 0 0 0 0 0 0 0 0 0 0 0 0 0 0 0 0 0 0 0 0 0 0 0 0 0 0 0 0 0 0 0 0 0 0 0 0 0 0 0 0 0 0 0 0 0 0 0 0 0 0 0 0 0 0 0 0 0 0 0 0 0 0 0 0 0 0 0 0 0 0 0 0 0 0 0 0 0 0 0 0 0 0 0 0 0 0 0 0 0 0 0 0 0 0 0 0 0 0 0 0 0 0 0 0 0 0 0 0 0 0 0 0 0 0 0 0 0 0 0 0 0 0 0 0 0 0 0 0 0 0 0 0 0 0 0 0 0 0 0 0 0 0 0 0 0 0 0 0 0 0 0 0 0 0 0 0 0 0 0 0 0 0 0 0 0 0 0 0 0 0 0 0 0 0 0 0 0 0 0 0 0 0 0 0 0 0 0 0 0 0 0 0 0 0 0 0 0 0 0 0 0 0 0 0 0 0 0 0 0 0 0 0 0 0 0 0 0 0 0 0 0 0 0 0 0 0 0 0 0 0 0 0 0 0 0 0 0 0 0 0 0 0 0 0 0 0 0 0 0 0 0 0 0 0 0 0 0 0 0 0 0 0 0 0 0 0 0 0 0 0 0 0 0 0 0 0 0 0 0 0 0 0 0 0 0 0 0 0 0 0 0 0 0 0 0 0 0 0 0 0 0 0 0 0 0 0 0 0 0 0 0 0 0 0 0 0 0 0 0 0 0 0 0 0 0 0 0 0 0 0 0 0 0 0 0 0 0 0 0 0 0 0 0 0 0 0 0 0 0 0 0 0 0 0 0 0 0 0 0 0 0 0 0 0 0 0 0 0 0 0 0 0 0 0 0 0 0 0 0 0 0 0 0 0 0 0 0 0 0 0 0 0 0 0 0 0 0 0 0 0 0 0 0 0 0 0 0 0 0 0 0 0 0 0 0 0 0 0 0 0 0 0 0 0 0 0 0 0 0 0 0 0 0 0 0 0 0 0 0 0 0 0 0 0 0 0 0 0 0 0 0 0 0 0 0 0 0 0 0 0 0 0 0 0 0 0 0 0 0 0 0 0 0 0 0 0 0 0 0 0 0 0 0 0 0 0 0 0 0 0 0 0 0 0 0 0 0 0 0 0 0 0 0 0 0 0 0 0 0 0 0 0 0 0 0 0 0 0 0 0 0 0 0 0 0 0 0 0 0 0 0 0 0 0 0 0 0 0 0 0 0 0 0 0 0 0 0 0 0 0 0 0 0 0 0 0 0 0 0 0 0 0 0 0 0 0 0 0 0 0 0 0 0 0 0 0 0 0 0 0 0 0 0 0 0 0 0 0 0 0 0 0 0 0 0 0 0 0 0 0 0 0 0 0 0 0 0 0 0 0 0 0 0 0 0 0 0 0 0 0 0 0 0 0 0 0 0 0 0 0 0 0 0 0 0 0 0 0 0 0 0 0 0 0 0 0 0 0 0 0 0 0 0 0 0 0 0 0 0 0 0 0 0 0 0 0 0 0 0 0 0 0 0 0 0 0 0 0 0 0 0 0 0 0 0 0 0 0 0 0 0 0 0 0 0 0 0 0 0 0 0 0 0 0 0 0 0 0 0 0 0 0 0 0 0 0 0 0 0 0 0 0 0 0 0 0 0 0 0 0 0 0 0 0 0 0 0 0 0 0 0 0 0 0 0 0 0 0 0 0 0 0 0 0 0 0 0 0 0 0 
        </DataArray>
        <DataArray Name="p" NumberOfComponents="1" type="Float32" format="ascii">