<?xml version="1.0"?>
<VTKFile type="StructuredGrid" version="0.1" byte_order="LittleEndian">
  <StructuredGrid WholeExtent="0 32 0 32 0 1">
    <Piece Extent="0 32 0 32 0 1">
      <PointData>
      </PointData>
      <CellData>
        <DataArray Name="vx" NumberOfComponents="1" type="Float32" format="ascii">
0.0215178 0.0216563 0.021804 0.0219523 0.0220736 0.0221576 0.0221592 0.0220655 0.0218212 0.0214244 0.0208317 0.0200821 0.0192308 0.0183452 0.0175505 0.0169283 0.016581 0.0164829 0.016629 0.0169735 0.0174962 0.0181376 0.0188465 0.0195676 0.0201703 0.020648 0.0209275 0.0210749 0.0211728 0.0212268 0.0213075 0.021397 0.0213473 0.0215328 0.0217301 0.0219355 0.0221218 0.022283 0.0223671 0.0223584 0.0221843 0.021834 0.0212212 0.0204106 0.0194534 0.0184251 0.0174979 0.0167794 0.0164385 0.0164071 0.0166588 0.0171039 0.0176916 0.0183353 0.0189788 0.0195734 0.0200329 0.0203813 0.020592 0.020727 0.0208348 0.0209275 0.0210468 0.0211824 0.0211481 0.0213671 0.0216032 0.0218607 0.0221137 0.0223668 0.0225587 0.0226795 0.0226333 0.0224007 0.0218059 0.0209137 0.0197851 0.0185148 0.0173377 0.0164643 0.0161602 0.0162341 0.0166377 0.0172162 0.0179113 0.0185882 0.0192065 0.019713 0.0200435 0.0202688 0.0203785 0.0204674 0.0205512 0.0206544 0.0207908 0.0209542 0.0208898 0.0211284 0.0213914 0.0216945 0.0220149 0.0223689 0.0226961 0.0229807 0.0231493 0.0231051 0.0225361 0.0216046 0.0203133 0.0187474 0.0172418 0.0160985 0.015797 0.0160104 0.016593 0.0173363 0.0181844 0.0189385 0.0195792 0.0200288 0.0202269 0.0203038 0.0202616 0.0202639 0.0202873 0.020375 0.0205083 0.0206823 0.0205721 0.0208084 0.0210736 0.0213984 0.0217596 0.0222003 0.0226698 0.0232111 0.023804 0.0242868 0.0239798 0.0229487 0.0212378 0.0190169 0.0167315 0.0152225 0.0152313 0.0158135 0.0167086 0.0176447 0.0186594 0.0194581 0.0201104 0.0205024 0.0205319 0.0204283 0.0201853 0.0200786 0.0200212 0.0200821 0.0201998 0.0203696 0.0201646 0.0203827 0.0206277 0.0209495 0.0213205 0.0218328 0.0225243 0.0235117 0.0251316 0.0265079 0.026372 0.0252116 0.0228104 0.0194382 0.0159339 0.0136058 0.0139565 0.0153859 0.0168098 0.0180212 0.0192378 0.0201064 0.0208164 0.0211711 0.0210299 0.020679 0.020143 0.0198873 0.019714 0.0197355 0.0198258 0.0199812 0.0197197 0.0198921 0.0200768 0.0203392 0.0206483 0.0212133 0.0222529 0.0242634 0.0279323 0.0313559 0.0319518 0.0296086 0.025054 0.0192405 0.0124015 0.0087945 0.0109936 0.0144867 0.0171075 0.0187103 0.0200514 0.0206687 0.0212558 0.0216109 0.0213221 0.0207898 0.0199899 0.0196476 0.0193837 0.0193822 0.019444 0.0195742 0.0191952 0.0193188 0.0194225 0.0196122 0.0198505 0.0206259 0.0224863 0.0264376 0.0340384 0.0375543 0.0346247 0.0296572 0.0238303 0.0182136 0.0107016 0.00389953 0.00495351 0.0117611 0.016555 0.018906 0.0203719 0.0205827 0.0209253 0.0213144 0.021209 0.0205516 0.0194753 0.0191784 0.0188835 0.0189105 0.0189674 0.0190856 0.0187366 0.0187959 0.01881 0.0189034 0.0190828 0.0200744 0.0226341 0.0282163 0.0358326 0.0322978 0.0218877 0.018484 0.0193075 0.0203759 0.0208236 0.0126404 0.00521052 0.0109078 0.0167646 0.0193015 0.0201314 0.0182766 0.0172201 0.0179929 0.0191211 0.0193148 0.0184266 0.018533 0.0183843 0.0185048 0.0185737 0.0186724 0.0182473 0.0182702 0.018204 0.0182335 0.0182034 0.0192044 0.0207386 0.025615 0.024631 0.0151595 0.0109657 0.0132619 0.0181669 0.0238502 0.0298383 0.0295661 0.0183359 0.0138662 0.0185478 0.0192168 0.0182553 0.0150433 0.0131348 0.0129911 0.0167029 0.0183974 0.0169169 0.0175021 0.0176201 0.0179283 0.0180797 0.0181983 0.0179406 0.0179136 0.01781 0.0177123 0.0175134 0.017605 0.0172993 0.0170084 0.00842673 0.0035914 0.00992617 0.0145039 0.0195076 0.0250836 0.0308776 0.0381689 0.0342634 0.0250203 0.0232686 0.0222552 0.0197536 0.0191949 0.0202793 0.0182836 0.0213589 0.0216566 0.0180206 0.0176815 0.0175614 0.0177488 0.0178604 0.017929 0.0176686 0.0176238 0.0175412 0.0173972 0.0171351 0.0163112 0.014616 0.00996941 0.0043505 0.00595344 0.0122939 0.0164341 0.0202537 0.0246169 0.0295957 0.0374351 0.0406088 0.0346202 0.028103 0.0252405 0.0211189 0.0208362 0.0195643 0.0169989 0.0153414 0.0145316 0.0163828 0.0165324 0.0172474 0.017454 0.017635 0.0176661 0.0175253 0.0174595 0.0173557 0.0171248 0.0165606 0.0147323 0.0106582 0.00313405 0.00169118 0.00799148 0.0132904 0.0171797 0.0203459 0.0239011 0.0281622 0.0344316 0.0420676 0.0408551 0.0328871 0.0283632 0.0253295 0.0244888 0.0189368 0.016653 0.0109304 0.00814256 0.0142867 0.0154105 0.0169501 0.0172632 0.017516 0.0175376 0.0174871 0.0173394 0.0171685 0.0168254 0.015974 0.0136617 0.00787761 7.77912e-05 0.00154506 0.0090546 0.0136236 0.0173029 0.0202927 0.0236405 0.0276733 0.0331498 0.0416789 0.0429674 0.0354079 0.0296704 0.0267541 0.0250812 0.0213673 0.0202943 0.0182868 0.0167621 0.018441 0.0184311 0.0183579 0.018046 0.0178296 0.0176297 0.0175296 0.0173408 0.0171622 0.0168154 0.0162103 0.0143381 0.0104905 0.00352025 0.00317606 0.00962278 0.0137605 0.0172672 0.0203086 0.0236571 0.0276801 0.0329911 0.040447 0.0406505 0.0338841 0.0293947 0.0271959 0.0251777 0.0249403 0.0233359 0.0215677 0.0221746 0.0206614 0.0197517 0.0189709 0.0184028 0.0180101 0.0177292 0.0176287 0.0173822 0.0171797 0.0168165 0.0165519 0.0154564 0.0145698 0.00891127 0.00500531 0.00865121 0.0124393 0.0163149 0.0202155 0.0245336 0.0294146 0.0354892 0.0400732 0.0369883 0.0309835 0.0281778 0.0270468 0.0259101 0.0264966 0.0259328 0.0241127 0.0237085 0.0220259 0.0207997 0.019626 0.0188469 0.0182773 0.0178992 0.0178462 0.0176021 0.0174157 0.0171674 0.0171998 0.0173494 0.0185239 0.0179659 0.0105194 0.00673857 0.0107337 0.0150101 0.0206406 0.0266246 0.0323593 0.0380068 0.0367422 0.030367 0.0274855 0.0265915 0.0267933 0.0264082 0.0268783 0.0266877 0.0253686 0.024263 0.0223086 0.0210033 0.0197919 0.0190506 0.0184857 0.0181209 0.0180991 0.017861 0.0176436 0.0174142 0.0173777 0.0180332 0.0195507 0.0230255 0.0160107 0.00563587 0.00598736 0.0112293 0.0207099 0.0300216 0.0366171 0.0351373 0.0250418 0.0203941 0.0230542 0.0244827 0.0260139 0.0260171 0.0266215 0.0266237 0.0253719 0.0241121 0.0221267 0.0209291 0.019794 0.0191756 0.0186727 0.0183607 0.018507 0.0183201 0.0181531 0.017978 0.0180339 0.018691 0.0208729 0.0253138 0.027808 0.020216 0.0113026 0.0125716 0.0218671 0.030391 0.0324509 0.0230253 0.0134048 0.0164638 0.021245 0.0238477 0.0257291 0.0255574 0.026036 0.0262401 0.0249641 0.0235479 0.0214605 0.020498 0.0195781 0.0192278 0.0188887 0.0187001 0.0189204 0.018813 0.0186968 0.018588 0.0186248 0.0191225 0.0208328 0.0248912 0.0309842 0.0330915 0.0292277 0.0226204 0.0194606 0.0146271 0.00589291 0.00346084 0.00735984 0.0144961 0.0200501 0.0226565 0.0245669 0.0233018 0.0244418 0.0260807 0.0248304 0.0233629 0.0207439 0.0198664 0.0191516 0.0191179 0.0190179 0.0190062 0.0194489 0.0194228 0.0193722 0.0193277 0.0193804 0.0196537 0.020558 0.0228385 0.0267986 0.0312657 0.0327815 0.0289622 0.0185828 0.00863858 0.00383103 0.00523135 0.0113707 0.0163043 0.0200724 0.0217476 0.0239863 0.0222742 0.0221361 0.0232669 0.0218492 0.0207102 0.0188013 0.0188565 0.018653 0.0190568 0.0192406 0.0194193 0.0199234 0.0199848 0.0200009 0.0200284 0.02013 0.0203536 0.0208597 0.021914 0.0237803 0.0258952 0.0269115 0.025401 0.0186438 0.0127826 0.0112964 0.0118024 0.0144863 0.0169018 0.0190196 0.0205028 0.0224626 0.0231168 0.0186927 0.0148801 0.0144146 0.0129284 0.0137175 0.0164916 0.0177083 0.0187754 0.0193708 0.0197602 0.0204534 0.0205546 0.0206003 0.0206554 0.0207676 0.0209591 0.0212639 0.0217696 0.0224876 0.0233291 0.0234835 0.0222201 0.0188046 0.0156902 0.01426 0.0140628 0.0150341 0.0159767 0.0164771 0.0173728 0.0170626 0.0181786 0.015369 0.0113475 0.0102651 0.00765386 0.0102861 0.0148414 0.0172225 0.0188205 0.0197142 0.0202194 0.0209808 0.0210488 0.0210818 0.0211321 0.0212255 0.0213692 0.0215571 0.0217716 0.0219776 0.0220651 0.021724 0.0207528 0.0186507 0.0167058 0.0156205 0.0150243 0.0150213 0.0151758 0.0147282 0.0147285 0.0104105 0.0113225 0.0139301 0.0123539 0.0115923 0.0117284 0.0146422 0.0165235 0.0186568 0.0197812 0.0204756 0.0208218 0.0214188 0.0214465 0.021455 0.021481 0.0215324 0.0216104 0.0216891 0.0217381 0.021689 0.0214786 0.0209286 0.0199633 0.0184777 0.0170117 0.0159226 0.0151496 0.0147182 0.0144449 0.0136718 0.0135526 0.0104088 0.0112993 0.0138268 0.0136052 0.013642 0.0139458 0.016514 0.0180488 0.0197542 0.0206344 0.0211143 0.0213344 0.0218458 0.0217637 0.0217166 0.0217031 0.0217091 0.0217225 0.0217115 0.0216374 0.0214467 0.021081 0.0204627 0.0195773 0.0183945 0.0172046 0.0162271 0.0154335 0.0149072 0.0145279 0.0142736 0.0143853 0.0158994 0.0170756 0.0166746 0.019163 0.0208615 0.0227238 0.0241623 0.0228521 0.0227768 0.0223178 0.0221517 0.0219602 0.022045 0.0219293 0.0218636 0.0218294 0.0218038 0.0217698 0.0216932 0.0215416 0.0212709 0.020842 0.0202161 0.0193903 0.0183937 0.0173667 0.0164518 0.015656 0.0150551 0.0145672 0.0143172 0.0142418 0.0159881 0.0176026 0.0179704 0.0201062 0.0224762 0.0258706 0.026807 0.024761 0.0237968 0.0229518 0.0225393 0.022222 0.0221267 0.0219974 0.0219259 0.0218841 0.0218434 0.0217827 0.0216683 0.021472 0.0211609 0.0207079 0.0200988 0.0193399 0.0184676 0.0175658 0.0167329 0.015988 0.0154026 0.014931 0.0147126 0.0145433 0.0152379 0.0159213 0.0174129 0.0195346 0.0223817 0.0258091 0.025945 0.0247806 0.0239528 0.0231545 0.0226915 0.0223306 0.0220748 0.0219816 0.0219348 0.0219068 0.0218694 0.0218025 0.0216735 0.0214598 0.0211337 0.0206789 0.0200908 0.0193809 0.0185904 0.017775 0.017011 0.0163291 0.0157895 0.015388 0.0152481 0.0152773 0.0159447 0.0166917 0.0182791 0.0204887 0.0226866 0.024773 0.0247979 0.0240884 0.0234885 0.0228823 0.0225142 0.0222288 0.0219606 0.0219194 0.0219112 0.0219126 0.0218959 0.0218425 0.0217198 0.0215091 0.021184 0.0207357 0.0201623 0.0194818 0.0187355 0.0179713 0.0172578 0.0166338 0.016154 0.0158317 0.0157517 0.015886 0.0164929 0.0173675 0.0187653 0.0204989 0.0219957 0.0231956 0.0233569 0.0231052 0.0228113 0.0224511 0.0222259 0.0220459 0.0218204 0.0218419 0.021883 0.0219258 0.0219435 0.0219199 0.0218208 0.0216304 0.0213182 0.0208806 0.0203114 0.0196341 0.0188935 0.0181389 0.0174447 0.0168591 0.0164377 0.0161968 0.0161805 0.0163844 0.0169266 0.0177091 0.0187859 0.0200369 0.0211142 0.0219773 0.0222607 0.0222458 0.0221546 0.0219882 0.0218971 0.0218274 0.0216692 0.0217521 0.021847 0.0219405 0.0220055 0.0220282 0.0219698 0.021816 0.0215276 0.021103 0.0205246 0.0198255 0.0190533 0.0182632 0.0175476 0.0169642 0.0165849 0.0164154 0.016472 0.0167395 0.017249 0.0179455 0.018798 0.0197299 0.020523 0.0211522 0.0214595 0.0215658 0.0216036 0.0215744 0.0215858 0.0216065 
        </DataArray>
        <DataArray Name="vy" NumberOfComponents="1" type="Float32" format="ascii">
0.0108711 0.010803 0.0107966 0.0108599 0.0110099 0.0112459 0.0115822 0.0119928 0.0124799 0.0129756 0.0134683 0.0138216 0.0140623 0.0140705 0.0139124 0.0135689 0.0131755 0.0128216 0.0125734 0.0124754 0.0125108 0.012626 0.0127514 0.0127901 0.0126912 0.0124808 0.0121577 0.0118776 0.0115843 0.0113534 0.0111481 0.0109891 0.0107159 0.0106323 0.0106208 0.0106932 0.010873 0.0111634 0.0115897 0.0121235 0.012776 0.0134626 0.0141681 0.0146754 0.0150081 0.0149797 0.014675 0.0140547 0.0133647 0.0127425 0.0122646 0.0120056 0.011909 0.0119876 0.0120893 0.0122199 0.0122198 0.0121566 0.0119527 0.0117431 0.0114858 0.0112552 0.0110364 0.010855 0.0105247 0.0104207 0.010397 0.0104677 0.0106654 0.0109988 0.0115092 0.012175 0.0130043 0.0139409 0.0148926 0.0155841 0.0160517 0.0160141 0.0155615 0.014627 0.0135508 0.012606 0.0118703 0.0114543 0.0112632 0.0113561 0.0114956 0.0117576 0.0118692 0.0119365 0.0118096 0.0116391 0.0113882 0.0111415 0.0108984 0.0106889 0.0103021 0.0101735 0.0101276 0.0101781 0.0103682 0.0107117 0.0112766 0.0120419 0.0130498 0.0142851 0.0156559 0.0167033 0.0174282 0.017421 0.0167468 0.0152174 0.0135975 0.0122614 0.011273 0.0107448 0.0105217 0.0107137 0.0109446 0.0114 0.0116396 0.0118307 0.0117379 0.0115702 0.0112922 0.0110114 0.0107342 0.0104935 0.0100836 0.0099195 0.00983613 0.00984129 0.00999686 0.0103147 0.0108978 0.0117322 0.0128631 0.0145911 0.0163832 0.0178153 0.018914 0.0190633 0.0182065 0.0160832 0.0136406 0.0118128 0.010531 0.00987101 0.00963575 0.00997463 0.0103869 0.0111342 0.0115746 0.0119348 0.0118405 0.0116339 0.0112787 0.01093 0.0105961 0.0103113 0.00986138 0.00966643 0.00954059 0.00948421 0.00957107 0.00979233 0.0102581 0.0109049 0.0119324 0.0141106 0.0169333 0.0195025 0.0214012 0.0219121 0.0205886 0.0166756 0.0130278 0.0107786 0.00943809 0.00882622 0.00869781 0.0093032 0.00988141 0.0109984 0.0116608 0.012199 0.0120423 0.0117422 0.0112658 0.0108305 0.0104377 0.0101164 0.00969008 0.00945621 0.00928024 0.0091417 0.00912584 0.00911007 0.00920661 0.00917953 0.00976697 0.013534 0.0176492 0.0214278 0.024678 0.0258751 0.0240161 0.0181387 0.0118489 0.00892585 0.00786665 0.00742318 0.00750536 0.00837824 0.00932367 0.0109412 0.0120396 0.0129093 0.0126059 0.0121182 0.011426 0.0108421 0.0103558 0.00998087 0.00954062 0.00930043 0.00910012 0.00890068 0.00870274 0.0081858 0.0071697 0.00527599 0.00465801 0.0101701 0.0181869 0.0268193 0.0319509 0.0345124 0.031039 0.0179643 0.00748131 0.00462448 0.00525875 0.00593784 0.00678041 0.00814012 0.0090087 0.0108868 0.0123637 0.0135714 0.0130777 0.0123748 0.0114828 0.0107731 0.0102286 0.0098349 0.00946809 0.00922748 0.0090088 0.00870378 0.00814687 0.00648423 0.00338909 -0.00223611 -0.00177274 0.0135084 0.0256755 0.0320153 0.0356257 0.0388403 0.0384457 0.0240761 0.00386644 -0.00295884 0.000765521 0.0034759 0.00580303 0.00764727 0.00875762 0.0105601 0.0128388 0.0148655 0.0139198 0.0128196 0.0116718 0.0107952 0.0101827 0.00976401 0.00941527 0.00921484 0.00899795 0.00860853 0.00751958 0.00463056 -0.00110447 -0.00784329 5.55314e-05 0.0247621 0.031601 0.0295898 0.0303998 0.0331819 0.0384213 0.0336181 0.0100812 -0.0074646 -0.00300292 0.00256288 0.00804235 0.0108802 0.010073 0.00840472 0.0107627 0.0143273 0.0136388 0.0124856 0.0114482 0.0106047 0.0100451 0.0096697 0.0094048 0.00926767 0.00908146 0.00870283 0.00729041 0.00401322 -0.00268565 -0.00573896 0.00873306 0.0270875 0.027264 0.0245836 0.0247598 0.0271603 0.0328274 0.0348088 0.0201179 -0.00400986 -0.00381512 0.00349151 0.0100071 0.0121368 0.0108684 0.00707163 0.0078331 0.0153336 0.0146998 0.0122514 0.0111887 0.010348 0.0098986 0.00959605 0.009436 0.00933462 0.00919664 0.00885994 0.00759825 0.00463231 -0.000602397 -0.000332274 0.0142489 0.0231048 0.021492 0.0199956 0.0200337 0.0218412 0.0255935 0.0302199 0.0242098 0.0031895 -0.000510126 0.00618126 0.0115835 0.0106883 0.0108512 0.00731723 0.00629996 0.0176212 0.0172206 0.0130654 0.0113849 0.0103534 0.00988356 0.00959988 0.00943815 0.0093872 0.00931281 0.00911783 0.00841385 0.00662992 0.00382952 0.0046457 0.0137227 0.0179331 0.0168575 0.0163575 0.0165472 0.0177476 0.0199033 0.023601 0.022235 0.00915833 0.00525684 0.0101518 0.0143118 0.0135356 0.0148749 0.0115714 0.0108791 0.0146254 0.0129789 0.0112259 0.0102273 0.00985949 0.00965301 0.00952884 0.00953337 0.00951422 0.00953585 0.0096839 0.00998414 0.0106736 0.0108793 0.00870536 0.00913299 0.0114993 0.0124257 0.0129398 0.0133601 0.0140989 0.0150101 0.0167086 0.0171097 0.0130219 0.0117814 0.014129 0.015891 0.0166813 0.0191086 0.0139688 0.0156149 0.0133227 0.0101343 0.010151 0.00978862 0.0097946 0.00969278 0.00961037 0.00970381 0.00968512 0.00978805 0.0102593 0.0114767 0.0145014 0.0171493 0.0115002 0.00451433 0.00614131 0.00860599 0.00972306 0.0101706 0.0104427 0.0102931 0.0100829 0.0118866 0.0161272 0.0182075 0.018493 0.0184992 0.0188054 0.0201861 0.0145235 0.015339 0.0138728 0.0117744 0.0111068 0.0105386 0.0102804 0.0100185 0.00983234 0.00993437 0.0099045 0.0100689 0.0107007 0.0124832 0.0166012 0.0216921 0.0167505 0.00218628 0.000951074 0.00464691 0.0064329 0.00694798 0.00683253 0.00556104 0.004116 0.00882693 0.0199589 0.0229382 0.0211728 0.0199326 0.0194606 0.0200468 0.0174001 0.0163583 0.0142708 0.0127211 0.0119582 0.0112784 0.0108322 0.0104168 0.0101207 0.0101986 0.0101286 0.0103021 0.010879 0.0126669 0.0165316 0.0229988 0.0216134 0.00437087 -0.000773658 0.00100915 0.00197245 0.0017875 0.00120131 -0.00081283 -0.000419035 0.0100813 0.0257659 0.0267654 0.0227349 0.0204895 0.0197413 0.0195843 0.0181374 0.0172007 0.0159489 0.0145152 0.0134359 0.0123835 0.0115901 0.0109254 0.010469 0.0104507 0.0103581 0.0105102 0.0109826 0.0123418 0.0154466 0.0212023 0.0247467 0.0141873 -0.000262182 -0.00356618 -0.00336722 -0.00457887 -0.00456112 -0.0057723 -0.000677961 0.0168692 0.0291164 0.0262955 0.0219701 0.01982 0.0196352 0.0193457 0.0191949 0.0184598 0.0175319 0.0159443 0.0146016 0.0132359 0.0121911 0.0113454 0.0107781 0.0106888 0.0105877 0.0107313 0.0111216 0.0120489 0.0141827 0.0183401 0.0238745 0.0224613 0.00904017 -0.00393148 -0.0131534 -0.0176279 -0.0152851 -0.00587277 0.0116633 0.0252093 0.0274374 0.0229544 0.0199952 0.0188574 0.0194458 0.018609 0.019751 0.0195328 0.0192859 0.0175451 0.0158048 0.0140618 0.0127335 0.011718 0.0110559 0.0108195 0.0107269 0.0108554 0.0111354 0.0116696 0.0126578 0.0147501 0.0178648 0.0196505 0.0158519 0.00358865 -0.0129721 -0.0221898 -0.0136762 0.00118346 0.0178653 0.0227295 0.0212219 0.0185686 0.0175026 0.0177832 0.0195692 0.0184654 0.0205439 0.020978 0.0211497 0.0189325 0.0165976 0.0144605 0.0129264 0.0118473 0.0111735 0.0108743 0.0108198 0.0109501 0.0111892 0.011516 0.0119287 0.0126076 0.0135917 0.0139934 0.0116988 0.00632259 -0.00360932 -0.0105584 -0.00243185 0.00506716 0.0113781 0.0145818 0.0150614 0.0150111 0.0157712 0.0181162 0.0198585 0.0152491 0.0196557 0.0224391 0.023409 0.0208458 0.0174033 0.0147036 0.0128872 0.0117977 0.0111694 0.0108124 0.0108152 0.0109484 0.0111393 0.0113483 0.0114815 0.011581 0.0115725 0.0111878 0.00964353 0.00603723 0.00123184 -0.00162065 0.00131665 0.00507084 0.00945081 0.011444 0.0122156 0.0128968 0.0136374 0.0171093 0.0217277 0.0174278 0.0208472 0.0230045 0.0240957 0.0209149 0.0169939 0.0142946 0.0124442 0.011488 0.0109951 0.0106308 0.0107428 0.0109002 0.0110617 0.0111875 0.0111936 0.0110489 0.0106682 0.00997769 0.00866914 0.00673969 0.00430767 0.00260048 0.00436237 0.00609183 0.00827778 0.00972201 0.0106158 0.0115239 0.0121111 0.0152332 0.0238829 0.0234447 0.0243618 0.02471 0.0251313 0.0163301 0.0132453 0.0121516 0.0111513 0.0107369 0.0106005 0.0104977 0.0106831 0.0108497 0.0109778 0.0110425 0.0109845 0.0107684 0.0103321 0.00963188 0.00862099 0.00724508 0.00590829 0.00507907 0.00584275 0.00688389 0.00843764 0.00957174 0.0105722 0.0116976 0.0134013 0.0164213 0.0231134 0.023927 0.025558 0.0254963 0.0244153 0.0135072 0.0109852 0.0105121 0.0101739 0.0101695 0.0103106 0.0103789 0.0106295 0.0108088 0.0109171 0.0109458 0.0108617 0.0106416 0.010246 0.0096737 0.00891838 0.00805307 0.00727187 0.00678607 0.00723934 0.00785817 0.00883223 0.00973662 0.0108148 0.0122503 0.0157232 0.0193725 0.0198308 0.0233978 0.0265004 0.0260087 0.0221641 0.0114312 0.00860443 0.00875088 0.00912915 0.0096255 0.0100382 0.0104102 0.0106584 0.0108196 0.0109035 0.0109115 0.0108279 0.010639 0.0103288 0.00989753 0.00937452 0.00879997 0.00834197 0.00809808 0.00835387 0.00879868 0.00951357 0.0102858 0.0113226 0.0126906 0.0159041 0.0194568 0.0188598 0.0223206 0.0250868 0.0255569 0.0209202 0.010334 0.00755645 0.00813363 0.00886705 0.0095493 0.0100399 0.0105586 0.0107441 0.0108635 0.0109223 0.0109236 0.0108592 0.0107238 0.0105095 0.0102269 0.0098955 0.00956225 0.00930939 0.00919845 0.00937014 0.00967821 0.0101573 0.0107458 0.0115275 0.0125875 0.0143446 0.0168574 0.0186376 0.0215514 0.0222573 0.0230025 0.0182935 0.0114581 0.00960095 0.00930867 0.00958826 0.00995442 0.0102894 0.0107252 0.0108459 0.0109241 0.0109641 0.0109702 0.0109379 0.010866 0.0107503 0.0105999 0.0104278 0.0102654 0.0101571 0.0101435 0.0102774 0.0105177 0.0108671 0.011343 0.0119846 0.0129314 0.0142214 0.015996 0.0171895 0.0199169 0.0199214 0.0199202 0.0161814 0.0119665 0.0105753 0.0101095 0.0101599 0.0103449 0.0105525 0.0108858 0.0109357 0.010975 0.0110033 0.0110247 0.0110344 0.0110339 0.0110164 0.0109908 0.0109548 0.0109331 0.0109321 0.0109837 0.0110969 0.0112711 0.0114988 0.0118268 0.0122728 0.0129841 0.0139184 0.015303 0.0163606 0.0178107 0.0175547 0.0168974 0.0146854 0.0124978 0.0114897 0.0109332 0.0107826 0.0107683 0.0108243 0.0109845 0.0109865 0.0110011 0.0110283 0.0110736 0.0111324 0.0112079 0.011289 0.0113821 0.01147 0.0115687 0.0116561 0.0117574 0.011853 0.011965 0.012082 0.012264 0.012525 0.0129805 0.0135774 0.0144683 0.0151021 0.0159405 0.0157709 0.0153485 0.0140416 0.0126697 0.0118859 0.011363 0.0111413 0.0110301 0.0109958 0.0110132 0.0109814 0.0109828 0.0110184 0.0110958 0.0112106 0.0113682 0.0115517 0.0117652 0.0119748 0.0121887 0.0123552 0.0124974 0.0125709 0.0126113 0.012607 0.0126278 0.0127 0.0129096 0.01323 0.0137463 0.0141415 0.0145742 0.0144646 0.0141436 0.0133916 0.0125766 0.012024 0.011588 0.011344 0.0111749 0.0110766 0.0109745 0.0109216 0.0109173 0.0109657 0.0110786 0.0112528 0.0114973 0.0117894 0.0121334 0.0124758 0.0128197 0.0130738 0.0132595 0.0133013 0.0132487 0.0130892 0.0129197 0.0127893 0.0127665 0.0128601 0.0130938 0.0133136 0.013546 0.0135184 0.0133274 0.0129065 0.0123879 0.0119915 0.0116347 0.0113955 0.0112034 0.0110696 
        </DataArray>
        <DataArray Name="vz" NumberOfComponents="1" type="Float32" format="ascii">
0 0 0 0 0 0 0 0 0 0 0 0 0 0 0 0 0 0 0 0 0 0 0 0 0 0 0 0 0 0 0 0 0 0 0 0 0 0 0 0 0 0 0 0 0 0 0 0 0 0 0 0 0 0 0 0 0 0 0 0 0 0 0 0 0 0 0 0 0 0 0 0 0 0 0 0 0 0 0 0 0 0 0 0 0 0 0 0 0 0 0 0 0 0 0 0 0 0 0 0 0 0 0 0 0 0 0 0 0 0 0 0 0 0 0 0 0 0 0 0 0 0 0 0 0 0 0 0 0 0 0 0 0 0 0 0 0 0 0 0 0 0 0 0 0 0 0 0 0 0 0 0 0 0 0 0 0 0 0 0 0 0 0 0 0 0 0 0 0 0 0 0 0 0 0 0 0 0 0 0 0 0 0 0 0 0 0 0 0 0 0 0 0 0 0 0 0 0 0 0 0 0 0 0 0 0 0 0 0 0 0 0 0 0 0 0 0 0 0 0 0 0 0 0 0 0 0 0 0 0 0 0 0 0 0 0 0 0 0 0 0 0 0 0 0 0 0 0 0 0 0 0 0 0 0 0 0 0 0 0 0 0 0 0 0 0 0 0 0 0 0 0 0 0 0 0 0 0 0 0 0 0 0 0 0 0 0 0 0 0 0 0 0 0 0 0 0 0 0 0 0 0 0 0 0 0 0 0 0 0 0 0 0 0 0 0 0 0 0 0 0 0 0 0 0 0 0 0 0 0 0 0 0 0 0 0 0 0 0 0 0 0 0 0 0 0 0 0 0 0 0 0 0 0 0 0 0 0 0 0 0 0 0 0 0 0 0 0 0 0 0 0 0 0 0 0 0 0 0 0 0 0 0 0 0 0 0 0 0 0 0 0 0 0 0 0 0 0 0 0 0 0 0 0 0 0 0 0 0 0 0 0 0 0 0 0 0 0 0 0 0 0 0 0 0 0 0 0 0 0 0 0 0 0 0 0 0 0 0 0 0 0 0 0 0 0 0 0 0 0 0 0 0 0 0 0 0 0 0 0 0 0 0 0 0 0 0 0 0 0 0 0 0 0 0 0 0 0 0 0 0 0 0 0 0 0 0 0 0 0 0 0 0 0 0 0 0 0 0 0 0 0 0 0 0 0 0 0 0 0 0 0 0 0 0 0 0 0 0 0 0 0 0 0 0 0 0 0 0 0 0 0 0 0 0 0 0 0 0 0 0 0 0 0 0 0 0 0 0 0 0 0 0 0 0 0 0 0 0 0 0 0 0 0 0 0 0 0 0 0 0 0 0 0 0 0 0 0 0 0 0 0 0 0 0 0 0 0 0 0 0 0 0 0 0 0 0 0 0 0 0 0 0 0 0 0 0 0 0 0 0 0 0 0 0 0 0 0 0 0 0 0 0 0 0 0 0 0 0 0 0 0 0 0 0 0 0 0 0 0 0 0 0 0 0 0 0 0 0 0 0 0 0 0 0 0 0 0 0 0 0 0 0 0 0 0 0 0 0 0 0 0 0 0 0 0 0 0 0 0 0 0 0 0 0 0 0 0 0 0 0 0 0 0 0 0 0 0 0 0 0 0 0 0 0 0 0 0 0 0 0 0 0 0 0 0 0 0 0 0 0 0 0 0 0 0 0 0 0 0 0 0 0 0 0 0 0 0 0 0 0 0 0 0 0 0 0 0 0 0 0 0 0 0 0 0 0 0 0 0 0 0 0 0 0 0 0 0 0 0 0 0 0 0 0 0 0 0 0 0 0 0 0 0 0 0 0 0 0 0 0 0 0 0 0 0 0 0 0 0 0 0 0 0 0 0 0 0 0 0 0 0 0 0 0 0 0 0 0 0 0 0 0 0 0 0 0 0 0 0 0 0 0 0 0 0 0 0 0 0 0 0 0 0 0 0 0 0 0 0 0 0 0 0 0 0 0 0 0 0 0 0 0 0 0 0 0 0 0 0 0 0 0 0 0 0 0 0 0 0 0 0 0 0 0 0 0 0 0 0 0 0 0 0 0 0 0 0 0 0 0 0 0 0 0 0 0 0 0 0 0 0 0 0 0 0 0 0 0 0 0 0 0 0 0 0 0 0 0 0 0 0 0 0 0 0 0 0 0 0 0 0 0 0 0 0 0 0 0 0 0 0 0 0 0 0 0 0 0 0 0 0 0 0 0 0 0 0 0 0 0 0 0 0 0 0 0 0 0 0 0 0 0 0 0 0 0 0 0 0 0 0 0 0 0 0 0 0 0 0 0 0 0 0 0 0 0 0 0 0 0 0 0 0 0 0 0 0 0 0 0 0 0 0 
        </DataArray>
        <DataArray Name="p" NumberOfComponents="1" type="Float32" format="ascii">