<?xml version="1.0"?>
<VTKFile type="StructuredGrid" version="0.1" byte_order="LittleEndian">
  <StructuredGrid WholeExtent="0 32 0 32 0 1">
    <Piece Extent="0 32 0 32 0 1">
      <PointData>
      </PointData>
      <CellData>
        <DataArray Name="vx" NumberOfComponents="1" type="Float32" format="ascii">
0.0217258 0.0220299 0.022344 0.0226488 0.0229228 0.0231342 0.0232462 0.0232132 0.0229899 0.0225362 0.0218244 0.0208865 0.0197645 0.0186074 0.0175272 0.0166415 0.0160435 0.0157323 0.0157449 0.0159899 0.0165099 0.0171536 0.0179711 0.0187642 0.0194294 0.0199599 0.0202849 0.0205616 0.0207542 0.020967 0.0211875 0.0214426 0.0215466 0.021907 0.0222837 0.022664 0.023029 0.0233479 0.0235816 0.0236716 0.0235589 0.0231716 0.0224514 0.0214224 0.0201217 0.0187682 0.0174988 0.0164885 0.01585 0.0155742 0.0156639 0.0159994 0.0165551 0.0171966 0.0179022 0.0185501 0.019101 0.0195378 0.0198565 0.020135 0.0203737 0.0206317 0.020905 0.021212 0.0213383 0.0217437 0.0221764 0.0226332 0.0231004 0.0235526 0.0239506 0.0242227 0.0242983 0.0240413 0.0233478 0.0222005 0.0205972 0.0189201 0.017349 0.0161509 0.015464 0.0152437 0.0154588 0.0159268 0.016571 0.0172533 0.017911 0.0184613 0.018924 0.019266 0.0195458 0.0197959 0.0200452 0.0203224 0.0206257 0.0209669 0.021076 0.0215126 0.0219903 0.022519 0.0230939 0.0237009 0.0243088 0.0248423 0.0252224 0.0252136 0.0246041 0.0233012 0.0212746 0.0191371 0.0171066 0.0156229 0.0148824 0.0147564 0.0151675 0.0158312 0.0166243 0.0173985 0.0180487 0.0185142 0.0188848 0.0191046 0.0193114 0.0195011 0.0197327 0.0200085 0.0203234 0.0206832 0.0207482 0.0211892 0.0216853 0.0222652 0.0229368 0.0237154 0.0246025 0.0255521 0.0265219 0.0270251 0.0267157 0.025223 0.0223079 0.0192774 0.0164779 0.014605 0.0139116 0.0140395 0.0148395 0.0158051 0.0167955 0.0176713 0.0182844 0.0186279 0.0189066 0.0189991 0.0191257 0.0192403 0.0194393 0.0196965 0.0200037 0.0203594 0.0203337 0.0207547 0.0212407 0.0218433 0.0225897 0.0235579 0.024831 0.0264876 0.0285098 0.0299694 0.0301107 0.0281426 0.0238479 0.0194411 0.0152881 0.01273 0.0121926 0.0128125 0.0143308 0.0158006 0.0170824 0.0180961 0.0186456 0.018813 0.0189577 0.0188868 0.0189234 0.0189509 0.0191126 0.0193438 0.0196328 0.0199693 0.0198541 0.0202055 0.0206242 0.0211912 0.0219671 0.0231643 0.0250391 0.0279332 0.0318499 0.0346805 0.0356538 0.0329614 0.0255491 0.0185699 0.0126147 0.00929011 0.00913769 0.0106308 0.0135079 0.0158384 0.0174684 0.018484 0.0186831 0.0184589 0.0185626 0.0185398 0.0186323 0.0186513 0.0188153 0.0190218 0.0192731 0.0195563 0.0193015 0.0195584 0.0198758 0.0203679 0.0211534 0.022642 0.0253331 0.0299397 0.0358793 0.0394165 0.0394365 0.034812 0.0255535 0.0180259 0.0104357 0.00629378 0.0060578 0.00753549 0.0120138 0.0155417 0.0176335 0.0185997 0.0181969 0.017368 0.017345 0.0175173 0.0179544 0.0181309 0.0184035 0.0186314 0.0188599 0.0190854 0.0187454 0.018837 0.0189703 0.0192931 0.0199684 0.0216477 0.0249075 0.0307537 0.0369444 0.03694 0.0309381 0.0253708 0.0221385 0.0201304 0.0144412 0.0105024 0.00756482 0.00631804 0.0110834 0.0155763 0.0177603 0.0180583 0.0164283 0.0141682 0.0141948 0.0158693 0.0171863 0.0176909 0.0181557 0.0183966 0.0185636 0.0186735 0.0181856 0.0181064 0.0180491 0.0181451 0.0185775 0.0199471 0.0226508 0.0271439 0.0289906 0.0231626 0.0145736 0.0132208 0.0184502 0.0231412 0.0263355 0.0232875 0.0140551 0.00989629 0.0121293 0.0164998 0.0186143 0.0192028 0.0180624 0.0149757 0.0118375 0.0132714 0.0164724 0.0174321 0.0180355 0.0182186 0.0182859 0.0182611 0.0177013 0.0173644 0.0169942 0.0166458 0.0163578 0.0164925 0.0166248 0.017311 0.0108717 0.0036365 0.00371322 0.00825855 0.0164503 0.0235507 0.0300962 0.0314572 0.0238547 0.0169978 0.0168951 0.0203957 0.0219381 0.0236543 0.0210115 0.0215537 0.0192052 0.0162021 0.0189712 0.0184304 0.0186302 0.0184453 0.0182658 0.0180037 0.0172975 0.0167435 0.016138 0.0153822 0.014454 0.0130326 0.0108576 0.00710804 9.18922e-05 -0.00241439 0.00281096 0.00927866 0.0170714 0.0241313 0.0315165 0.0369851 0.0393425 0.0345323 0.0276256 0.0263705 0.0244722 0.0254509 0.0252556 0.0291097 0.0376115 0.0361004 0.0278751 0.0226512 0.0204417 0.019154 0.0184141 0.0178209 0.0169584 0.016187 0.0152763 0.0139256 0.0119589 0.00819853 0.00254764 -0.00638948 -0.0094781 -0.00408906 0.00311207 0.0105341 0.017714 0.0244802 0.031973 0.0396221 0.0477938 0.0500144 0.0429543 0.0352019 0.0286262 0.0253191 0.021973 0.0266952 0.0315921 0.0262046 0.0228677 0.0210427 0.0198946 0.0190283 0.0183138 0.0176275 0.0167187 0.0158443 0.0147778 0.0131149 0.010562 0.00562023 -0.00191436 -0.0120354 -0.0127798 -0.00406987 0.0039111 0.0115441 0.0183484 0.0249029 0.0321289 0.0401265 0.0498207 0.0545728 0.0490333 0.0403066 0.032859 0.0280087 0.0236467 0.0265949 0.0279399 0.0223639 0.0209702 0.0205323 0.019804 0.0189417 0.0182066 0.0174484 0.0167362 0.0158543 0.0147888 0.0131274 0.0106651 0.00592335 -0.00131497 -0.0116401 -0.0126692 -0.00378861 0.0043594 0.012199 0.019079 0.0258617 0.0331008 0.0416726 0.0513739 0.0577571 0.0529653 0.0424543 0.0360455 0.0307919 0.0304774 0.0247243 0.0180362 0.0194939 0.0195793 0.0201778 0.0196384 0.0189375 0.0182168 0.0174687 0.0169267 0.016158 0.0152759 0.0139715 0.0122908 0.00905004 0.00471289 -0.00496418 -0.00911586 -0.00304007 0.00457104 0.0126098 0.0199566 0.0272849 0.0346396 0.0432058 0.0512798 0.0549565 0.0489455 0.0393911 0.0348885 0.0310211 0.0317313 0.025861 0.019171 0.0211844 0.02076 0.0206386 0.0198169 0.0190048 0.0182878 0.0175834 0.0173718 0.0168078 0.0162196 0.0154991 0.014827 0.0139084 0.0130473 0.00900049 0.00140877 -0.000856822 0.00560915 0.0133269 0.0213023 0.0291992 0.0360421 0.0436972 0.0467042 0.041054 0.0352696 0.0324959 0.031265 0.0296878 0.0301203 0.0269185 0.0226533 0.0226004 0.0213785 0.0207108 0.0198413 0.0190765 0.0184689 0.0178861 0.0179285 0.0176033 0.0173092 0.0171973 0.017327 0.0186685 0.020532 0.0247409 0.0190993 0.0086619 0.0101089 0.0163867 0.0235995 0.0303409 0.0344289 0.0371203 0.0331018 0.0252017 0.0248042 0.0265102 0.0280744 0.028239 0.0295242 0.0270811 0.0233481 0.0228344 0.0213597 0.0205128 0.0197525 0.0191144 0.0186814 0.0182668 0.0186039 0.0184979 0.0184765 0.0187343 0.0194373 0.0215607 0.0253278 0.0325479 0.0360133 0.0291212 0.0228584 0.0239196 0.025576 0.0257425 0.0237983 0.0169062 0.0108401 0.0116326 0.0170931 0.0220342 0.0253201 0.0266945 0.0290646 0.0267539 0.0226349 0.0221128 0.0207409 0.0200033 0.019533 0.0191334 0.0189504 0.0187439 0.0192775 0.0193384 0.0194738 0.01988 0.0206565 0.0225671 0.0259468 0.0320823 0.0387245 0.0392303 0.0325723 0.0252897 0.0214456 0.0172078 0.0131171 0.00676821 0.0035617 0.00880744 0.0149643 0.0200322 0.0233118 0.0253913 0.0318618 0.0268626 0.0183446 0.020095 0.0195127 0.0192393 0.0192022 0.0191312 0.0192232 0.0192413 0.0199548 0.0201431 0.0203843 0.0208358 0.0215477 0.0229636 0.0252465 0.0291523 0.0336198 0.0355037 0.0320037 0.0237298 0.01666 0.0110219 0.00721572 0.0049401 0.00524015 0.0101084 0.0148079 0.0187421 0.0211406 0.0234786 0.0318851 0.0247125 0.0125124 0.0158657 0.0173122 0.0181485 0.018818 0.019156 0.0195359 0.0197657 0.020585 0.0208488 0.02113 0.0215609 0.022158 0.0231393 0.024542 0.0266356 0.0290697 0.030174 0.0282525 0.0230388 0.0171227 0.0121554 0.0092623 0.00796044 0.00876767 0.0117046 0.0139309 0.0158118 0.0140588 0.0150483 0.0107371 0.0136273 0.0165152 0.0133361 0.0164822 0.0168607 0.0184552 0.0192254 0.0198764 0.0202942 0.0211709 0.0214492 0.0217266 0.0221072 0.0225854 0.0232572 0.0240593 0.0250613 0.0259924 0.0262173 0.0248742 0.0216946 0.0178447 0.0143 0.0121838 0.0111742 0.0114059 0.0125759 0.0135787 0.0141072 0.0125491 0.0108765 0.00490981 0.0109106 0.0209304 0.0208471 0.020082 0.0182363 0.019128 0.0198533 0.0204293 0.0208764 0.0216612 0.0219185 0.0221632 0.0224722 0.0228351 0.0232832 0.0237384 0.0241639 0.0243774 0.024066 0.022846 0.0206721 0.018065 0.0156194 0.0139853 0.0129213 0.0127231 0.0129142 0.0135966 0.0135366 0.0145824 0.0135604 0.00891802 0.0114205 0.0169834 0.0183779 0.0190623 0.0192287 0.0194944 0.0204009 0.0209275 0.0213852 0.0220728 0.0222567 0.0224461 0.0226791 0.022936 0.0232158 0.0234392 0.0235541 0.0234108 0.0228749 0.0217635 0.020105 0.0181779 0.0162962 0.0148678 0.0137769 0.0132767 0.0129409 0.0131917 0.0128935 0.0143613 0.0142254 0.0109401 0.0126457 0.0159494 0.0184014 0.0205336 0.020835 0.0210134 0.0214073 0.0216502 0.0219053 0.0222929 0.0224429 0.0225951 0.0227671 0.0229399 0.0230956 0.0231689 0.0231073 0.0228031 0.0221874 0.0211665 0.0198053 0.0182532 0.0167099 0.0154209 0.0143319 0.0136313 0.0130559 0.0128266 0.0125493 0.0127177 0.0132283 0.0117886 0.0120459 0.014273 0.0127263 0.0144764 0.0190453 0.0205174 0.0215025 0.0218756 0.0221405 0.0224372 0.0225275 0.0226415 0.0227681 0.0228825 0.0229565 0.022935 0.0227749 0.0223978 0.0217714 0.0208461 0.0196811 0.018371 0.0170486 0.0158753 0.0148496 0.0141129 0.0135109 0.0132544 0.0131308 0.0135309 0.0138923 0.0138238 0.0150452 0.0179737 0.0188757 0.0196399 0.0216081 0.0220812 0.0223528 0.0223352 0.0223886 0.0224563 0.022527 0.0226271 0.0227313 0.0228133 0.0228406 0.0227676 0.0225579 0.0221561 0.0215459 0.0207011 0.0196747 0.0185297 0.0173639 0.0162906 0.0153274 0.0145964 0.0140068 0.0138044 0.0137668 0.0147616 0.0154248 0.0179296 0.0205133 0.0224157 0.0232809 0.0226328 0.0230389 0.0227122 0.0226319 0.0224658 0.0224395 0.0223643 0.0224505 0.0225643 0.0226737 0.0227526 0.0227675 0.0226793 0.0224567 0.0220585 0.021476 0.0206963 0.0197643 0.0187304 0.0176744 0.0166854 0.0157974 0.015111 0.0145785 0.0143954 0.0143798 0.0151667 0.0158761 0.0185706 0.0211161 0.0225726 0.0234249 0.023019 0.023105 0.0226913 0.0225272 0.0223592 0.0223303 0.0222301 0.022355 0.0225003 0.0226342 0.0227318 0.0227598 0.0226835 0.022473 0.0220948 0.0215415 0.0208064 0.0199298 0.0189568 0.0179618 0.017025 0.0161917 0.0155537 0.0150922 0.0149688 0.0150558 0.0157781 0.0166049 0.0184849 0.0203239 0.0216214 0.0224838 0.0224544 0.0225286 0.0222783 0.0221949 0.0221186 0.022146 0.0220604 0.0222422 0.0224367 0.0226152 0.0227541 0.0228209 0.0227823 0.0226068 0.0222624 0.0217379 0.0210272 0.0201675 0.0192034 0.0182173 0.0172914 0.0164856 0.0158851 0.0154837 0.0153959 0.0155282 0.0161386 0.0169091 0.0183105 0.0196974 0.0207317 0.0214679 0.0216285 0.0217828 0.021727 0.0217593 0.0217987 0.0219075 0.021895 0.0221379 0.0223897 0.0226258 0.0228236 0.0229508 0.0229733 0.0228542 0.0225576 0.0220627 0.021357 0.0204768 0.0194676 0.0184323 0.0174631 0.0166422 0.0160555 0.0157046 0.0156627 0.0158502 0.0163956 0.0170961 0.0181205 0.0191331 0.0199502 0.0205749 0.0208618 0.0211025 0.0212037 0.0213427 0.0214857 0.0216737 
        </DataArray>
        <DataArray Name="vy" NumberOfComponents="1" type="Float32" format="ascii">
0.0103811 0.0103129 0.0103075 0.0103837 0.0105579 0.0108457 0.0112552 0.0117863 0.0124144 0.0131066 0.0137818 0.0143611 0.0147563 0.0148917 0.0148118 0.0145052 0.0141299 0.0137151 0.0134174 0.013194 0.0131517 0.0130732 0.0131106 0.0128398 0.0126189 0.0121678 0.0118194 0.0114362 0.0111356 0.0108775 0.0106671 0.0105039 0.0100532 0.00996877 0.00996025 0.0100512 0.0102666 0.0106297 0.0111602 0.0118637 0.0127159 0.0136812 0.0146312 0.0154548 0.015987 0.0160923 0.0158665 0.0152723 0.014586 0.0138335 0.0132538 0.012792 0.0125753 0.0124025 0.0123897 0.0122047 0.0120668 0.011765 0.0114931 0.0111757 0.0108873 0.0106235 0.0103897 0.0102 0.00968668 0.00957666 0.00955185 0.00963946 0.00987593 0.0102942 0.0109334 0.0118101 0.0129143 0.0142139 0.0155281 0.0166829 0.0174097 0.0174974 0.0171039 0.0161344 0.0150576 0.0138908 0.0129999 0.0123008 0.011956 0.0117364 0.0117506 0.0116601 0.0116221 0.0114299 0.0112148 0.0109291 0.0106349 0.0103505 0.010086 0.00986369 0.00927403 0.00912835 0.00906856 0.0091238 0.00934457 0.00977546 0.0104866 0.0115155 0.0128923 0.014642 0.0164714 0.0182148 0.0192899 0.0193271 0.0186732 0.0171287 0.0155234 0.0138186 0.0125869 0.0116659 0.0112576 0.0110539 0.0111789 0.0111871 0.0112554 0.0111367 0.0109565 0.0106716 0.0103553 0.01004 0.00974171 0.00948513 0.00886091 0.00866596 0.00854969 0.00853937 0.00870008 0.00908366 0.00979813 0.0109027 0.0125419 0.0148392 0.0174265 0.0199985 0.0215713 0.0216158 0.0206695 0.0182844 0.0159704 0.0135687 0.0119492 0.0108206 0.0104049 0.0102988 0.0106461 0.0108263 0.011056 0.0110043 0.0108374 0.0105117 0.0101384 0.00976502 0.00941675 0.00911538 0.00843845 0.00818539 0.00798703 0.00786358 0.00788713 0.00809732 0.00863723 0.0095927 0.0113945 0.0144908 0.0182546 0.0226561 0.0252869 0.0250918 0.0234719 0.0196058 0.0161895 0.0128467 0.0108687 0.0096872 0.00941982 0.00955134 0.0102168 0.010552 0.010882 0.010876 0.0107149 0.0103307 0.00989326 0.00946215 0.00907177 0.00873372 0.00808424 0.00776709 0.00747138 0.00720009 0.00700172 0.00685721 0.00688765 0.00724942 0.00905588 0.0132871 0.019186 0.026274 0.0302955 0.0300557 0.0276096 0.0210663 0.0160367 0.0113164 0.00898635 0.00801694 0.00811171 0.00873015 0.00992259 0.0105429 0.0110569 0.0110244 0.0108238 0.0103196 0.00977266 0.00925234 0.0088048 0.00842339 0.00777883 0.00740336 0.00698964 0.00650024 0.00589603 0.00498855 0.00383326 0.00275172 0.00455422 0.0108248 0.0198779 0.0328297 0.0397118 0.0376806 0.033129 0.0228879 0.0151239 0.00844457 0.00576919 0.00574424 0.00679044 0.00838037 0.0100816 0.0107615 0.0107494 0.0107094 0.0106346 0.0100984 0.00952701 0.00898098 0.00852804 0.00813994 0.00762573 0.00720823 0.00668184 0.00594668 0.00476527 0.00272074 -0.000352667 -0.00323297 -0.000431431 0.00989874 0.0233467 0.0403032 0.0472253 0.044976 0.0402779 0.0240054 0.015259 0.00504086 0.000890255 0.00232193 0.00497892 0.00835418 0.0110454 0.0115228 0.0111546 0.0102306 0.0102659 0.00979305 0.00929713 0.00878886 0.00836832 0.00799347 0.00760284 0.00716072 0.00651281 0.00546318 0.00350669 -4.89959e-05 -0.005348 -0.00951497 -0.00201182 0.0172799 0.031527 0.0417864 0.0448371 0.0445397 0.0431909 0.0297273 0.0197856 0.00519698 -0.00330709 -0.000788712 0.00415246 0.00981295 0.012799 0.0138226 0.00880971 0.00759666 0.00923111 0.00915625 0.00893929 0.00857552 0.00826158 0.00794727 0.0077927 0.00736691 0.00667256 0.00546744 0.00303992 -0.00124755 -0.00736206 -0.00945932 0.0040759 0.0240159 0.0330609 0.0362981 0.0373539 0.0380137 0.0397909 0.0368583 0.0281329 0.0069333 -0.00658477 -0.00406787 0.00215411 0.0104715 0.0151553 0.0179745 0.0139563 0.0040285 0.00570131 0.00767705 0.00837893 0.00842463 0.00830978 0.00809 0.00823809 0.00785211 0.00720086 0.00605031 0.00361119 -0.000489518 -0.00614783 -0.00452205 0.0121932 0.0242069 0.0276693 0.0288667 0.0294443 0.0309325 0.0342185 0.0363965 0.0336211 0.0129726 -0.00618284 -0.00586558 0.000497164 0.00903419 0.0150789 0.0133832 0.014454 0.00759559 0.00991976 0.0100854 0.00951812 0.00909317 0.00879553 0.00852903 0.00886701 0.008548 0.00805995 0.00722673 0.00547985 0.00255574 -0.0011549 0.00137186 0.0138123 0.0205617 0.0212922 0.0218493 0.022436 0.0238488 0.0267167 0.0297181 0.0303972 0.0183329 0.00117464 -0.000759118 0.00424515 0.00939551 0.0140807 0.0061649 0.00947102 0.0125664 0.0165847 0.0135905 0.0113204 0.0101327 0.00954363 0.00916585 0.00967263 0.00952352 0.00940932 0.00933302 0.00916683 0.00881214 0.00779773 0.00777398 0.00989841 0.0121064 0.0132285 0.014377 0.0155083 0.0167992 0.0188675 0.0208913 0.023094 0.018808 0.00861283 0.00762115 0.0106686 0.0141189 0.0144842 0.000301869 0.0134046 0.0173309 0.0171963 0.0141908 0.0120484 0.0109008 0.0102877 0.00991112 0.0104743 0.0105112 0.0107979 0.0115253 0.0130019 0.0153367 0.0165273 0.0127306 0.00512372 0.00376827 0.00548714 0.00735672 0.00902015 0.0101051 0.0113339 0.0120486 0.0152715 0.018831 0.0154001 0.0157038 0.0167948 0.018443 0.0164517 0.00315362 0.015134 0.019044 0.0168862 0.014372 0.0126027 0.0116067 0.0109965 0.0106397 0.0112761 0.0114644 0.0120947 0.0134461 0.0162393 0.020715 0.0249591 0.0196051 0.00188174 -0.00464207 -0.00275982 -0.000312594 0.00185478 0.00273311 0.00307466 0.00253119 0.00725558 0.0171462 0.0243544 0.0244282 0.0221575 0.0204056 0.0193205 0.0128649 0.016855 0.0173642 0.0162818 0.0145844 0.0133282 0.0123974 0.0117692 0.0113909 0.0119056 0.0121728 0.0129801 0.0145571 0.0178911 0.0231194 0.0301962 0.0269892 0.00263626 -0.00969511 -0.0102583 -0.00801965 -0.00547458 -0.00453342 -0.00432186 -0.00466434 0.00409077 0.0206798 0.0312143 0.0290477 0.0248932 0.0218879 0.0208455 0.0172631 0.0188705 0.0180481 0.0169356 0.0153743 0.0141374 0.0131258 0.0124182 0.0119994 0.0123558 0.0126174 0.013394 0.0148595 0.0177909 0.0225884 0.0296953 0.0313335 0.0120244 -0.008932 -0.016961 -0.0162004 -0.0140613 -0.0123519 -0.0115356 -0.00854053 0.00989284 0.0285092 0.0332015 0.0290112 0.0249173 0.0221403 0.0214837 0.020776 0.020455 0.0191902 0.0179235 0.0162816 0.0149347 0.0137806 0.0129652 0.012479 0.0125777 0.0127843 0.0133996 0.0145219 0.0164911 0.0198431 0.0243962 0.0280273 0.0191064 -0.000849652 -0.0181163 -0.0217863 -0.0187104 -0.0152634 -0.0105096 -0.00349109 0.0161329 0.0288982 0.0293968 0.025687 0.0226797 0.0208639 0.0210434 0.0248008 0.0222801 0.0205796 0.0189669 0.0170878 0.0154959 0.0141959 0.0132765 0.0127428 0.0126141 0.0127438 0.0131723 0.0138983 0.0149926 0.0166765 0.0187469 0.0203481 0.0158213 0.00436204 -0.0114731 -0.0190416 -0.0160515 -0.0112234 -0.00310418 0.0043578 0.0157146 0.0226353 0.0229541 0.0212627 0.0201156 0.0192281 0.0206937 0.0277756 0.0242061 0.0216626 0.0196988 0.0175957 0.0157687 0.0143545 0.013368 0.0128153 0.012488 0.0125753 0.012863 0.0133103 0.0138258 0.0144776 0.0149476 0.0150344 0.0121394 0.00509912 -0.00422188 -0.0108028 -0.0102815 -0.00642742 0.00010027 0.00619477 0.0135992 0.0171959 0.0177519 0.017233 0.0166729 0.012719 0.0175091 0.0414891 0.0274035 0.0200119 0.0196441 0.0175398 0.015644 0.0141863 0.0131923 0.0126812 0.0122413 0.0123115 0.0124944 0.0127318 0.0128977 0.0129567 0.0126298 0.0118815 0.00961753 0.00567472 0.000367027 -0.00353604 -0.00393318 -0.00168706 0.0026369 0.00646772 0.0107482 0.0133223 0.0144395 0.0154401 0.0151937 0.0100512 0.0181959 0.0478984 0.031372 0.0183471 0.0165277 0.0160373 0.0146388 0.0135603 0.0127463 0.0123743 0.0119484 0.0120277 0.0121527 0.0122648 0.0122527 0.0120581 0.011468 0.0104635 0.00863775 0.00596725 0.00292803 0.000639617 0.000369812 0.00168666 0.00424252 0.00676763 0.00968542 0.0119025 0.0136084 0.0165899 0.0180149 0.0141832 0.0202305 0.0349387 0.0285788 0.0182542 0.0176556 0.0158665 0.0137335 0.012834 0.0122211 0.0119913 0.0116473 0.0117485 0.0118396 0.0118702 0.011764 0.0114724 0.0108541 0.00991753 0.00849371 0.0067362 0.00485411 0.00352789 0.00328238 0.00404042 0.00563657 0.00734637 0.00937219 0.0112155 0.0131101 0.0163351 0.0192261 0.0165135 0.0209294 0.0289245 0.0248468 0.0179075 0.0193295 0.0155748 0.0128624 0.0119692 0.0116436 0.01158 0.0114286 0.0115346 0.0116005 0.011586 0.0114439 0.0111408 0.0105943 0.00981366 0.00874912 0.00752443 0.00632663 0.00551786 0.00536196 0.0058574 0.00688465 0.00808862 0.00958738 0.011008 0.0128794 0.0151864 0.018428 0.0189443 0.0233197 0.0253467 0.022028 0.0148003 0.0183702 0.0159187 0.0127839 0.0115805 0.0113101 0.0113109 0.0112654 0.0113687 0.011415 0.0113784 0.0112341 0.0109647 0.0105257 0.00993535 0.00917913 0.00836988 0.00760602 0.00712422 0.0070364 0.00738549 0.00810132 0.00900307 0.0101683 0.0113874 0.0131721 0.0152113 0.0181498 0.0193364 0.0237645 0.0232752 0.0204921 0.0139205 0.0158328 0.0144334 0.0120164 0.0111401 0.0110282 0.0111174 0.011147 0.0112466 0.0112799 0.0112395 0.0111169 0.010906 0.0105861 0.0101747 0.00967504 0.00916629 0.00871084 0.00845384 0.00843898 0.00871803 0.00923182 0.00991664 0.0108169 0.0118678 0.0133881 0.0154091 0.0179137 0.019715 0.0245885 0.0218273 0.0200186 0.0144461 0.0120669 0.0112367 0.010638 0.0105672 0.0107692 0.0109736 0.0111016 0.0111609 0.011173 0.0111366 0.0110491 0.0109105 0.0107118 0.010469 0.010186 0.00991794 0.00969364 0.00960308 0.00965644 0.00989609 0.0102811 0.0107973 0.0114693 0.012291 0.0134502 0.0149674 0.0169353 0.0191115 0.0226954 0.0195402 0.0176312 0.0133436 0.0123832 0.0113333 0.0108719 0.0107593 0.0108695 0.0109923 0.0110611 0.0110802 0.0110757 0.0110514 0.011008 0.0109488 0.0108702 0.0107835 0.0106896 0.0106202 0.0105834 0.0106275 0.0107444 0.0109628 0.0112541 0.0116275 0.0121073 0.0127109 0.0135694 0.0146275 0.0160589 0.0172185 0.0190812 0.0175532 0.0165331 0.0137601 0.0125262 0.0114677 0.0111067 0.0109523 0.0109747 0.011018 0.0109753 0.0109624 0.0109511 0.0109485 0.0109574 0.0109832 0.0110249 0.0110885 0.0111691 0.0112788 0.011407 0.0115697 0.0117462 0.011946 0.0121547 0.0123858 0.0126708 0.0130364 0.0135835 0.0142633 0.0152227 0.0159363 0.0169916 0.0159291 0.0151807 0.013363 0.0125049 0.0116718 0.0113155 0.0110982 0.011025 0.0109917 0.0108474 0.0108086 0.0107954 0.0108182 0.0108824 0.0109956 0.0111578 0.0113709 0.0116224 0.0119071 0.0121959 0.0124752 0.0127115 0.012893 0.0130198 0.0131022 0.0131932 0.0133184 0.0135723 0.0139008 0.0144242 0.014731 0.0151986 0.014595 0.0141302 0.0130202 0.0123938 0.0117466 0.0114007 0.0111502 0.0110073 0.0109128 0.0106408 0.0105874 0.0105794 0.0106311 0.0107525 0.0109545 0.0112398 0.0116078 0.0120392 0.0125137 0.0129795 0.0133933 0.0136997 0.0138583 0.0138894 0.0137953 0.0136693 0.0135376 0.0135136 0.0135521 0.0137595 0.013845 0.0140446 0.0136323 0.0133026 0.0125883 0.012119 0.0116251 0.0113034 0.0110488 0.0108681 0.0107367 
        </DataArray>
        <DataArray Name="vz" NumberOfComponents="1" type="Float32" format="ascii">
0 0 0 0 0 0 0 0 0 0 0 0 0 0 0 0 0 0 0 0 0 0 0 0 0 0 0 0 0 0 0 0 0 0 0 0 0 0 0 0 0 0 0 0 0 0 0 0 0 0 0 0 0 0 0 0 0 0 0 0 0 0 0 0 0 0 0 0 0 0 0 0 0 0 0 0 0 0 0 0 0 0 0 0 0 0 0 0 0 0 0 0 0 0 0 0 0 0 0 0 0 0 0 0 0 0 0 0 0 0 0 0 0 0 0 0 0 0 0 0 0 0 0 0 0 0 0 0 0 0 0 0 0 0 0 0 0 0 0 0 0 0 0 0 0 0 0 0 0 0 0 0 0 0 0 0 0 0 0 0 0 0 0 0 0 0 0 0 0 0 0 0 0 0 0 0 0 0 0 0 0 0 0 0 0 0 0 0 0 0 0 0 0 0 0 0 0 0 0 0 0 0 0 0 0 0 0 0 0 0 0 0 0 0 0 0 0 0 0 0 0 0 0 0 0 0 0 0 0 0 0 0 0 0 0 0 0 0 0 0 0 0 0 0 0 0 0 0 0 0 0 0 0 0 0 0 0 0 0 0 0 0 0 0 0 0 0 0 0 0 0 0 0 0 0 0 0 0 0 0 0 0 0 0 0 0 0 0 0 0 0 0 0 0 0 0 0 0 0 0 0 0 0 0 0 0 0 0 0 0 0 0 0 0 0 0 0 0 0 0 0 0 0 0 0 0 0 0 0 0 0 0 0 0 0 0 0 0 0 0 0 0 0 0 0 0 0 0 0 0 0 0 0 0 0 0 0 0 0 0 0 0 0 0 0 0 0 0 0 0 0 0 0 0 0 0 0 0 0 0 0 0 0 0 0 0 0 0 0 0 0 0 0 0 0 0 0 0 0 0 0 0 0 0 0 0 0 0 0 0 0 0 0 0 0 0 0 0 0 0 0 0 0 0 0 0 0 0 0 0 0 0 0 0 0 0 0 0 0 0 0 0 0 0 0 0 0 0 0 0 0 0 0 0 0 0 0 0 0 0 0 0 0 0 0 0 0 0 0 0 0 0 0 0 0 0 0 0 0 0 0 0 0 0 0 0 0 0 0 0 0 0 0 0 0 0 0 0 0 0 0 0 0 0 0 0 0 0 0 0 0 0 0 0 0 0 0 0 0 0 0 0 0 0 0 0 0 0 0 0 0 0 0 0 0 0 0 0 0 0 0 0 0 0 0 0 0 0 0 0 0 0 0 0 0 0 0 0 0 0 0 0 0 0 0 0 0 0 0 0 0 0 0 0 0 0 0 0 0 0 0 0 0 0 0 0 0 0 0 0 0 0 0 0 0 0 0 0 0 0 0 0 0 0 0 0 0 0 0 0 0 0 0 0 0 0 0 0 0 0 0 0 0 0 0 0 0 0 0 0 0 0 0 0 0 0 0 0 0 0 0 0 0 0 0 0 0 0 0 0 0 0 0 0 0 0 0 0 0 0 0 0 0 0 0 0 0 0 0 0 0 0 0 0 0 0 0 0 0 0 0 0 0 0 0 0 0 0 0 0 0 0 0 0 0 0 0 0 0 0 0 0 0 0 0 0 0 0 0 0 0 0 0 0 0 0 0 0 0 0 0 0 0 0 0 0 0 0 0 0 0 0 0 0 0 0 0 0 0 0 0 0 0 0 0 0 0 0 0 0 0 0 0 0 0 0 0 0 0 0 0 0 0 0 0 0 0 0 0 0 0 0 0 0 0 0 0 0 0 0 0 0 0 0 0 0 0 0 0 0 0 0 0 0 0 0 0 0 0 0 0 0 0 0 0 0 0 0 0 0 0 0 0 0 0 0 0 0 0 0 0 0 0 0 0 0 0 0 0 0 0 0 0 0 0 0 0 0 0 0 0 0 0 0 0 0 0 0 0 0 0 0 0 0 0 0 0 0 0 0 0 0 0 0 0 0 0 0 0 0 0 0 0 0 0 0 0 0 0 0 0 0 0 0 0 0 0 0 0 0 0 0 0 0 0 0 0 0 0 0 0 0 0 0 0 0 0 0 0 0 0 0 0 0 0 0 0 0 0 0 0 0 0 0 0 0 0 0 0 0 0 0 0 0 0 0 0 0 0 0 0 0 0 0 0 0 0 0 0 0 0 0 0 0 0 0 0 0 0 0 0 0 0 0 0 0 0 0 0 0 0 0 0 0 0 0 0 0 0 0 0 0 0 0 0 0 0 0 0 0 0 0 0 0 0 0 0 0 0 0 0 0 0 0 0 0 0 0 0 0 0 0 0 0 0 0 0 0 0 0 0 0 0 0 
        </DataArray>
        <DataArray Name="p" NumberOfComponents="1" type="Float32" format="ascii">