<?xml version="1.0"?>
<VTKFile type="StructuredGrid" version="0.1" byte_order="LittleEndian">
  <StructuredGrid WholeExtent="0 32 0 32 0 1">
    <Piece Extent="0 32 0 32 0 1">
      <PointData>
      </PointData>
      <CellData>
        <DataArray Name="vx" NumberOfComponents="1" type="Float32" format="ascii">
0.0214677 0.0217319 0.0220071 0.022283 0.0225335 0.0227317 0.0228428 0.0228267 0.0226413 0.0222589 0.0216485 0.0208513 0.0198926 0.0188979 0.0179411 0.0171282 0.0165667 0.0162331 0.0162364 0.0164157 0.0169061 0.0174665 0.0182076 0.0189279 0.0194707 0.0199847 0.0202942 0.0205442 0.0207 0.0208647 0.0210295 0.0212363 0.0212651 0.0215847 0.0219227 0.0222701 0.0226054 0.0229014 0.0231208 0.0232156 0.0231261 0.0228081 0.0221971 0.0213392 0.0202501 0.01911 0.0179939 0.017068 0.0164543 0.0161328 0.0161914 0.0164404 0.0169566 0.0175108 0.0181573 0.018745 0.0192005 0.0196136 0.0198793 0.0201174 0.0203014 0.0205051 0.020722 0.020979 0.0210339 0.0213983 0.0217931 0.0222131 0.0226433 0.02306 0.0234244 0.0236827 0.0237493 0.0235501 0.0229586 0.0220155 0.0207255 0.0193547 0.0179904 0.0168788 0.0161815 0.0158723 0.0160249 0.01638 0.0169868 0.017579 0.0182017 0.0187003 0.0190628 0.0193818 0.0195752 0.0197756 0.0199548 0.0201708 0.0204176 0.0207071 0.0207541 0.0211501 0.0215913 0.0220793 0.022608 0.0231656 0.0237142 0.0242125 0.0245318 0.024554 0.0240306 0.0229711 0.0213922 0.0196739 0.0179247 0.0165322 0.0157302 0.0154582 0.015785 0.0163052 0.0170724 0.017736 0.0183686 0.0187858 0.0190344 0.0192536 0.019343 0.0194835 0.0196313 0.0198382 0.0200964 0.0204017 0.0204005 0.0208077 0.0212752 0.0218173 0.0224406 0.0231654 0.0239682 0.0248602 0.0256404 0.0260964 0.0257448 0.0244913 0.0224096 0.0200817 0.017713 0.015862 0.0149207 0.0147713 0.0154156 0.0162065 0.017225 0.0179861 0.0186705 0.0189764 0.0190707 0.0192085 0.0191521 0.0192176 0.0193073 0.0194868 0.0197389 0.0200417 0.0199822 0.020375 0.0208411 0.0214126 0.0221149 0.0230379 0.0241955 0.0257475 0.0273179 0.0285322 0.0283989 0.026707 0.0238348 0.0205415 0.0171711 0.014597 0.0134709 0.0135859 0.0148407 0.0161055 0.0175037 0.0183622 0.0190485 0.0191555 0.0190364 0.0191003 0.0188934 0.0189129 0.018957 0.0191137 0.0193537 0.0196382 0.0194603 0.0198078 0.0202347 0.0208019 0.0215676 0.0227566 0.0244591 0.0270949 0.0298626 0.0320609 0.0320672 0.0295277 0.0254223 0.0207995 0.0161778 0.0125721 0.0110735 0.0115807 0.0137527 0.0157639 0.0177086 0.0186378 0.0193949 0.0190627 0.0186115 0.0188493 0.0185043 0.0185408 0.0185471 0.0186821 0.0189037 0.0191536 0.0189282 0.0191901 0.0195326 0.0200505 0.0208487 0.0223463 0.0247134 0.0287273 0.0325817 0.0353453 0.0338351 0.0293955 0.0253815 0.020898 0.0160012 0.0114745 0.00884204 0.00924674 0.0123315 0.0152508 0.0178399 0.0187388 0.0192569 0.018175 0.017349 0.0178991 0.0176347 0.0179469 0.0180756 0.0182663 0.01849 0.0186898 0.0182817 0.0184281 0.0186414 0.0190554 0.0198201 0.02156 0.0244039 0.0293168 0.03246 0.0332034 0.0289658 0.0236498 0.0222291 0.0204494 0.0181254 0.0140256 0.00922039 0.00848126 0.0115034 0.0147727 0.0177787 0.018605 0.0195737 0.0167951 0.015008 0.0168416 0.0166881 0.0173244 0.017566 0.0177745 0.0179931 0.0181279 0.017782 0.0177453 0.0177562 0.0179372 0.0184423 0.0198979 0.0222789 0.0263279 0.0268174 0.0229216 0.0213503 0.0202919 0.0191832 0.0193054 0.0180923 0.0164073 0.0127364 0.0110712 0.0130134 0.0156281 0.0186802 0.0199856 0.0201951 0.0164443 0.0149407 0.0161711 0.015671 0.0168692 0.0173643 0.0176105 0.0177765 0.017781 0.0171431 0.0169098 0.0166651 0.0164738 0.0164323 0.0169642 0.0178924 0.0193895 0.0176339 0.0113745 0.0101766 0.0130963 0.0162255 0.020365 0.0240287 0.0263409 0.0247246 0.022366 0.019789 0.0193228 0.0203172 0.0228051 0.0208968 0.019755 0.0217317 0.0199259 0.0185803 0.0178503 0.0176959 0.0174565 0.0174514 0.0172915 0.0168586 0.0163477 0.0157702 0.0150071 0.0140231 0.0125167 0.0103025 0.00636938 0.00320232 0.00135562 0.00373856 0.00933793 0.0152838 0.0214214 0.0276016 0.0326858 0.03462 0.0327528 0.0275394 0.0244137 0.0217765 0.020014 0.017327 0.0203332 0.0206517 0.0198152 0.0221543 0.0198035 0.0189934 0.0181381 0.017742 0.0172744 0.0163684 0.0156624 0.0147586 0.0133456 0.0112189 0.00740003 0.00187054 -0.00595711 -0.00791693 -0.0040526 0.00180649 0.00894237 0.0154457 0.0217691 0.0284598 0.0346956 0.0401165 0.0389623 0.0338084 0.0306968 0.0253133 0.021923 0.0189476 0.0193168 0.0182221 0.0183762 0.0206501 0.0187652 0.0184458 0.0177897 0.0174028 0.0168987 0.0163609 0.015516 0.0144405 0.0127056 0.0100264 0.00505664 -0.0020984 -0.0107093 -0.0114042 -0.00488364 0.00226535 0.00976142 0.0161813 0.0223746 0.0290055 0.0359032 0.043402 0.0464221 0.0438986 0.0383966 0.0307797 0.0253525 0.0217536 0.0199831 0.0196223 0.0191151 0.0186433 0.0185717 0.0185397 0.0181716 0.017639 0.0170361 0.016382 0.0155152 0.0144144 0.0126597 0.00995997 0.00504808 -0.00234399 -0.0110384 -0.0113307 -0.00455138 0.00276732 0.0104312 0.0168865 0.0232347 0.0298834 0.0369869 0.0448191 0.0499399 0.0487199 0.0420545 0.0344697 0.0293235 0.0266367 0.0265281 0.0265217 0.0233581 0.0205328 0.0199929 0.0191769 0.0185442 0.0177837 0.0171104 0.0168035 0.0160639 0.0152343 0.014001 0.0124714 0.00947554 0.0058976 -0.000923627 -0.0042331 -0.00136718 0.00438219 0.0116686 0.0179929 0.0245505 0.0311469 0.0376417 0.0441002 0.0467135 0.043884 0.0385546 0.0336126 0.0301375 0.0287531 0.0278224 0.0260129 0.0233736 0.0213226 0.0207524 0.0197228 0.0190041 0.0181649 0.0174912 0.0172998 0.0167577 0.016244 0.0156492 0.015277 0.0146861 0.0147306 0.0121405 0.00848955 0.00564473 0.00770051 0.0136562 0.0195463 0.0261525 0.0322651 0.0367435 0.0393156 0.0391135 0.0359185 0.0322881 0.0303919 0.0289579 0.0287537 0.0276634 0.0257561 0.0240972 0.0223411 0.0214311 0.0201431 0.0193264 0.0184822 0.0178759 0.0179367 0.0176235 0.0174189 0.0174018 0.017899 0.0191521 0.0217772 0.023739 0.0229718 0.0173852 0.0156523 0.0186258 0.0214802 0.0262441 0.0298189 0.0299964 0.0271388 0.0254099 0.0251885 0.0249663 0.0264394 0.0270326 0.0278237 0.0271795 0.0256841 0.0243509 0.0225598 0.021529 0.0202714 0.0195346 0.0188189 0.0183516 0.0185816 0.0184534 0.0184473 0.0187244 0.0195148 0.0214272 0.0246349 0.0291602 0.0289885 0.0253649 0.0245249 0.0229488 0.0221354 0.0235663 0.0237363 0.0212628 0.0185314 0.0166374 0.0179241 0.0208415 0.0238378 0.0254824 0.0267509 0.0262826 0.0251839 0.0240046 0.0221703 0.0212419 0.020163 0.0196181 0.019111 0.0188238 0.0191885 0.0192295 0.0193675 0.0197883 0.0205937 0.0224337 0.0252651 0.0299648 0.0317706 0.0308237 0.0274201 0.0233312 0.0216485 0.0182201 0.0152615 0.0128779 0.0110976 0.0113757 0.0147196 0.0186476 0.0220036 0.0241681 0.0256793 0.0249158 0.023835 0.0229901 0.0212398 0.0205495 0.0198226 0.0195338 0.0193115 0.0192386 0.0198015 0.0199514 0.0201574 0.0205782 0.0212357 0.022612 0.0245927 0.0280287 0.0305262 0.0314464 0.0283897 0.0229674 0.0196459 0.0147905 0.0107678 0.00927757 0.00889766 0.0107656 0.0144082 0.01768 0.0201312 0.0216983 0.0213553 0.0209797 0.0225747 0.0217146 0.0192867 0.0192833 0.0192529 0.0194075 0.0195419 0.0196862 0.0202796 0.0205334 0.020798 0.0212016 0.0217255 0.0226699 0.023857 0.0258314 0.0273609 0.0280713 0.026476 0.0224277 0.0186851 0.0143764 0.0110822 0.0100093 0.010187 0.011885 0.0141779 0.0160571 0.0175241 0.0174232 0.0148297 0.0160796 0.020348 0.0212216 0.0189817 0.0180872 0.0186189 0.0191058 0.0196241 0.0199927 0.0208264 0.021097 0.0213546 0.0216942 0.0220879 0.0227044 0.0233639 0.0243522 0.0250219 0.0252056 0.0240591 0.021311 0.0185266 0.0154027 0.0130794 0.0122034 0.0121793 0.0131242 0.0143326 0.0153722 0.0162753 0.0166683 0.0166267 0.0165213 0.0129266 0.015593 0.0189263 0.0175699 0.0186953 0.0192658 0.0200213 0.0204739 0.0211951 0.0214834 0.0217327 0.0220226 0.0223249 0.0227264 0.0230793 0.0234946 0.0236232 0.0233705 0.0224187 0.0205139 0.0184635 0.0162301 0.0144662 0.0135252 0.0130084 0.0130817 0.0127168 0.0126315 0.00968917 0.00959694 0.0122579 0.0124772 0.0113542 0.0108418 0.0138615 0.0166224 0.018324 0.0194348 0.0202665 0.0208181 0.02162 0.0218505 0.0220428 0.0222561 0.0224631 0.0227038 0.0228644 0.0229752 0.02283 0.0223727 0.0214771 0.0200121 0.0184433 0.0167596 0.0153528 0.0144089 0.0137415 0.0135037 0.013088 0.0131374 0.011775 0.0117343 0.0120607 0.0118738 0.0125149 0.0103513 0.0118122 0.0162007 0.0185175 0.0199493 0.0207977 0.0213035 0.0219067 0.0220594 0.0221986 0.0223572 0.0224987 0.0226341 0.0226791 0.0226251 0.0223512 0.0218105 0.0209704 0.0197646 0.018462 0.0170807 0.0158636 0.014913 0.0141949 0.0137754 0.0135109 0.0136872 0.0139719 0.0142775 0.0131494 0.0138383 0.0164631 0.0186818 0.0203941 0.0203838 0.0207865 0.021268 0.0215306 0.0217541 0.0221473 0.0222216 0.022305 0.0224088 0.0224932 0.0225519 0.0225199 0.0223756 0.0220432 0.0214884 0.0207063 0.0196699 0.0185484 0.0173639 0.0162875 0.01537 0.0146701 0.0141831 0.0140324 0.0142383 0.0152341 0.0160466 0.0149846 0.0159432 0.0194191 0.0206464 0.0211057 0.0217361 0.0218037 0.0220237 0.022061 0.0221066 0.0221812 0.0222281 0.0222969 0.0223844 0.0224473 0.0224701 0.0224018 0.0222167 0.0218664 0.0213255 0.0206 0.0196841 0.0186885 0.0176411 0.0166726 0.0158081 0.0151568 0.0146591 0.0145715 0.0146637 0.0157306 0.0163178 0.0176806 0.0190802 0.0186452 0.0201038 0.0220889 0.022671 0.0225939 0.0224564 0.0222792 0.0222033 0.0221535 0.0222003 0.022271 0.0223562 0.0224141 0.0224246 0.022345 0.0221493 0.021803 0.021288 0.0206117 0.0197811 0.0188739 0.0179229 0.017034 0.016224 0.0156169 0.0151404 0.0150672 0.0151285 0.0160447 0.0167306 0.0188178 0.0205341 0.0203116 0.0216153 0.0227247 0.0228761 0.0226663 0.0224566 0.0222636 0.0221771 0.0220051 0.0220934 0.0221999 0.022313 0.0223942 0.0224213 0.0223573 0.022176 0.0218494 0.0213638 0.0207242 0.0199473 0.0190913 0.0181991 0.017361 0.0165991 0.0160356 0.0156034 0.015543 0.0156111 0.0163414 0.0170463 0.0186499 0.020246 0.0208336 0.0218335 0.0223487 0.0224478 0.0222905 0.0221378 0.0220099 0.0219797 0.0218432 0.0219847 0.022138 0.022292 0.0224125 0.0224759 0.0224477 0.0222999 0.0220049 0.021549 0.0209315 0.0201774 0.0193318 0.0184548 0.0176265 0.016886 0.0163464 0.0159567 0.0159099 0.0160098 0.0166212 0.017293 0.0185201 0.0197362 0.020393 0.0211863 0.0215693 0.0217458 0.0217246 0.021708 0.0216943 0.02175 0.0216543 0.0218585 0.0220716 0.0222825 0.0224611 0.022582 0.0226114 0.0225169 0.0222663 0.0218422 0.021233 0.0204719 0.0195946 0.0186867 0.0178231 0.0170702 0.0165342 0.0161793 0.0161509 0.0162829 0.0168029 0.017405 0.0183219 0.0192493 0.0198861 0.0205309 0.0208724 0.0210957 0.0211791 0.0212657 0.0213505 0.0214883 
        </DataArray>
        <DataArray Name="vy" NumberOfComponents="1" type="Float32" format="ascii">
0.0105026 0.0104179 0.0103969 0.0104499 0.0105942 0.0108428 0.0112025 0.0116722 0.0122319 0.0128435 0.0134545 0.0139728 0.0143634 0.0145244 0.0145309 0.0142992 0.014025 0.0136553 0.0134139 0.0131887 0.0131705 0.0130738 0.0131409 0.012891 0.012712 0.0123608 0.0120114 0.01163 0.0113167 0.011034 0.010816 0.0106332 0.0102242 0.0101163 0.0100853 0.0101463 0.0103243 0.0106382 0.0111052 0.0117256 0.0124849 0.0133248 0.014177 0.0148888 0.0154025 0.0155623 0.0154744 0.0150227 0.0144843 0.0138141 0.0133001 0.012853 0.0126458 0.0124761 0.0124652 0.0123254 0.0122117 0.0119806 0.0117302 0.0114178 0.0111321 0.0108436 0.0106011 0.0103858 0.00989837 0.00976284 0.00971349 0.00976951 0.00996569 0.0103285 0.0108939 0.0116636 0.0126503 0.0137631 0.0149367 0.0159081 0.0165986 0.0167711 0.0165746 0.0158335 0.0149616 0.0139178 0.0131007 0.0124363 0.0120821 0.0118983 0.0118789 0.0118724 0.0118214 0.0116952 0.0114955 0.0112139 0.0109263 0.0106163 0.0103428 0.0100926 0.00953246 0.00935555 0.00926872 0.00929309 0.00947586 0.00985125 0.0104867 0.0113874 0.0126338 0.0140925 0.015732 0.0171019 0.0180752 0.0182918 0.0179556 0.0168327 0.0154962 0.0139697 0.0127898 0.0118993 0.0114255 0.0112838 0.0113108 0.0114983 0.0115017 0.0114938 0.0113235 0.0110499 0.0107359 0.0103843 0.0100658 0.00976971 0.00914956 0.00892539 0.00878696 0.00875431 0.00888623 0.00921946 0.00986477 0.0108266 0.0123493 0.0142281 0.0165763 0.0185086 0.0199061 0.0202185 0.019705 0.01803 0.0160415 0.0138599 0.0122598 0.0111633 0.0106391 0.0106377 0.0107996 0.011246 0.0113123 0.0114181 0.011237 0.010931 0.0105589 0.0101457 0.0097749 0.00943091 0.00877142 0.00847962 0.00825901 0.00812101 0.00812984 0.00830647 0.00881594 0.0096697 0.0114624 0.0139046 0.0173938 0.0203825 0.0225189 0.0230066 0.0221723 0.0196485 0.01658 0.0134602 0.0113467 0.010087 0.00960674 0.00986733 0.0102554 0.0111697 0.0111946 0.0114818 0.011283 0.0109288 0.0104713 0.00996629 0.00952157 0.00911237 0.0084083 0.0080611 0.00775291 0.00747747 0.00727513 0.00711581 0.00720161 0.00762338 0.00969495 0.0130333 0.0186394 0.0229344 0.0260543 0.0268309 0.0255287 0.0218288 0.0170599 0.012516 0.00978129 0.00853393 0.00837769 0.00914961 0.00996404 0.0113291 0.0112646 0.0116587 0.0113492 0.0108869 0.0103236 0.00973243 0.00923562 0.00878736 0.0081317 0.00770592 0.00727014 0.0067772 0.00619333 0.0053778 0.00456543 0.00414183 0.00669589 0.0113997 0.0200142 0.0269082 0.0313863 0.0324221 0.0303838 0.024831 0.0174702 0.0106781 0.00713043 0.00607851 0.00667945 0.00821488 0.00973564 0.0121029 0.0112027 0.0117662 0.0114823 0.0109607 0.0103304 0.00963955 0.00907476 0.00856817 0.00789681 0.00744308 0.00689486 0.00614608 0.00499813 0.00317589 0.000895099 -0.00047753 0.00337385 0.0116109 0.0254849 0.0308173 0.0342473 0.0359831 0.034205 0.0296511 0.0193359 0.00915318 0.00396399 0.00306098 0.00491255 0.00769598 0.0105331 0.0133377 0.0112977 0.0117196 0.0111435 0.0105392 0.0099432 0.00929651 0.00878409 0.00832021 0.00785662 0.00735107 0.0066564 0.0055882 0.00373563 0.000750626 -0.00299836 -0.00415724 0.00328301 0.0136857 0.0295339 0.0335229 0.0355484 0.0375041 0.0369993 0.0337902 0.0224194 0.00790642 0.000792743 -0.000399146 0.00297569 0.00643225 0.0117101 0.016647 0.0107312 0.0104312 0.0106249 0.0101502 0.00983346 0.0092398 0.00875531 0.00829837 0.00791785 0.00745152 0.00670235 0.00544047 0.00303946 -0.000772849 -0.0055615 -0.005508 0.00704561 0.0177226 0.0287856 0.0328373 0.03448 0.0359885 0.0369018 0.0347383 0.0255133 0.00880388 0.000122537 -0.00277714 0.000528958 0.00520762 0.0146391 0.018839 0.0107678 0.0122393 0.0102651 0.00916176 0.0091862 0.00888985 0.00859229 0.00828047 0.00826447 0.00783631 0.00710158 0.00582535 0.00328158 -0.000629454 -0.00526313 -0.00343407 0.0111717 0.0210539 0.0267001 0.0279539 0.0285963 0.0299513 0.031923 0.0325408 0.0268047 0.0121278 0.00411823 -0.00117358 0.000482036 0.00632091 0.0147159 0.0160549 0.0103903 0.0134374 0.0114421 0.0107728 0.0100577 0.00942877 0.0089444 0.00861737 0.00883667 0.00853709 0.00804587 0.00721439 0.0055138 0.00299543 0.000304885 0.0016698 0.0115518 0.0179524 0.0206566 0.0214986 0.0221996 0.0234846 0.0256561 0.0274562 0.0256468 0.016219 0.00840094 0.0027348 0.00390492 0.00935269 0.0139422 0.0152523 0.0115557 0.0105626 0.0116754 0.0127291 0.0111703 0.0101834 0.0094902 0.00914265 0.0095125 0.00944775 0.00938982 0.00934256 0.00914145 0.00871249 0.00789406 0.00678212 0.00902249 0.0116213 0.0133498 0.0145576 0.0157306 0.0170343 0.0190096 0.0208404 0.0220151 0.0186079 0.0117993 0.00816825 0.00939561 0.0137163 0.0168138 0.0172127 0.0121848 0.00956715 0.0111588 0.0123454 0.0110271 0.0103644 0.00986179 0.00965917 0.0103448 0.0104774 0.0108718 0.0117183 0.0132154 0.0153393 0.0161435 0.0109603 0.00531132 0.00440388 0.00572277 0.00769034 0.00943378 0.0106723 0.0120798 0.0131578 0.015109 0.016567 0.0157521 0.0160476 0.0164021 0.0182808 0.0187426 0.0172412 0.0125519 0.0117614 0.0127903 0.0128324 0.0117326 0.0110922 0.0106234 0.0104127 0.0110986 0.0114118 0.0121915 0.0137391 0.0165979 0.0207813 0.0235787 0.0158907 0.00271194 -0.00209197 -0.00166388 0.000682993 0.00290395 0.00417436 0.00526376 0.00603332 0.00892287 0.015233 0.0191054 0.0224861 0.0221315 0.0215852 0.0202 0.0174504 0.0154283 0.014912 0.0144367 0.0134656 0.0124104 0.0117373 0.0112873 0.0110799 0.0117607 0.0120806 0.0129522 0.01461 0.0178014 0.0223423 0.0266501 0.0212013 0.00551925 -0.00446883 -0.00766488 -0.0058774 -0.00368724 -0.00255873 -0.00120992 9.35359e-05 0.00545058 0.01721 0.0234928 0.0267109 0.0251435 0.0230764 0.0212763 0.0192034 0.0174669 0.0164936 0.0156445 0.0145216 0.0135015 0.0126829 0.0121092 0.0117843 0.0121985 0.0124674 0.0132524 0.0146898 0.0174225 0.0213029 0.0256702 0.0223817 0.00885696 -0.000781926 -0.00947366 -0.0109286 -0.0095911 -0.0083706 -0.00517279 -0.000963249 0.00693157 0.0184707 0.0259458 0.0277622 0.0254197 0.0230478 0.0216735 0.0202916 0.0191686 0.0181877 0.0170296 0.0156519 0.0144563 0.0134284 0.0127144 0.0122818 0.0124852 0.0126246 0.0131856 0.0142017 0.0160603 0.0186787 0.0218888 0.0207282 0.0117683 0.00253994 -0.00930591 -0.011281 -0.0117866 -0.0111403 -0.00495498 0.00216881 0.0104675 0.0188851 0.0247243 0.0251128 0.0232585 0.0216167 0.0213709 0.0210514 0.0204299 0.019659 0.0184834 0.0168714 0.0154644 0.0141711 0.0132695 0.0126864 0.0125475 0.0125911 0.0129526 0.0135942 0.0146592 0.0161104 0.0178209 0.0177856 0.0128169 0.00394108 -0.00682774 -0.0088492 -0.0102674 -0.00961565 -0.00258959 0.00467494 0.0117537 0.0185809 0.0217888 0.0216599 0.0207837 0.0199526 0.0210329 0.021555 0.0214164 0.0212912 0.0197467 0.0177144 0.0160373 0.0145052 0.0134788 0.0128149 0.012503 0.0124609 0.0126465 0.0129907 0.0134542 0.0140136 0.0144203 0.0141295 0.0109849 0.0061937 -0.00158288 -0.00520291 -0.00641506 -0.00509277 0.000283686 0.00625281 0.0114683 0.0155794 0.0175663 0.0178083 0.0177676 0.0178311 0.0212424 0.0224211 0.0225624 0.0223985 0.0208535 0.0182845 0.0164425 0.0146981 0.013558 0.0128287 0.0122664 0.0122168 0.0123137 0.0124843 0.0126206 0.0126933 0.0124312 0.0117876 0.00953142 0.00646644 0.00166954 -0.00075215 -0.00172229 -0.000718392 0.00284344 0.00674952 0.0102344 0.0131049 0.0149246 0.0160273 0.0169775 0.0185374 0.0223498 0.019066 0.0200139 0.0253527 0.0222122 0.0178236 0.0159435 0.0142251 0.0131893 0.0125447 0.0119756 0.0119518 0.0119991 0.0120637 0.0120233 0.0118607 0.0113298 0.0105499 0.00883514 0.00691095 0.00408833 0.00241272 0.0017804 0.00244311 0.00462382 0.00711733 0.00947513 0.0115209 0.013212 0.0142672 0.015734 0.0204121 0.0228592 0.0184993 0.0182512 0.023681 0.0233519 0.0182855 0.0153175 0.0136297 0.0126603 0.0121772 0.0116434 0.0116727 0.0117123 0.0117279 0.0116179 0.0113771 0.0108197 0.0100758 0.00876537 0.00742307 0.0056618 0.004653 0.00428229 0.00472018 0.00607224 0.00769562 0.00938735 0.011096 0.0128543 0.0145739 0.0161054 0.0189075 0.0213574 0.0216554 0.0197485 0.0192984 0.0214042 0.0178415 0.0146012 0.0129095 0.0120386 0.0117336 0.011318 0.0114204 0.0114752 0.0114721 0.0113427 0.0110931 0.0106013 0.00997153 0.00900719 0.00806111 0.00696359 0.00630323 0.00609721 0.00641236 0.0073259 0.00851747 0.00989476 0.0116069 0.0136031 0.0167456 0.0183524 0.0179506 0.0198594 0.0209415 0.0206794 0.021041 0.0171065 0.0136191 0.0124422 0.0116148 0.0112507 0.0112422 0.0111078 0.0112435 0.0113046 0.0112946 0.0111741 0.0109558 0.010566 0.0100821 0.00940151 0.00875181 0.00805794 0.00765516 0.00755984 0.00780654 0.00844761 0.00931868 0.0103847 0.0118074 0.013509 0.0162775 0.0178975 0.0185155 0.0203217 0.0208932 0.0202261 0.0197 0.0155327 0.0119075 0.0111642 0.0108157 0.0107764 0.0109397 0.0109988 0.0111273 0.0111839 0.0111736 0.0110771 0.0109082 0.0106274 0.0102875 0.00984168 0.00942536 0.00901928 0.00879514 0.00878719 0.00900366 0.0094902 0.0101586 0.0110139 0.0121738 0.0136011 0.0157822 0.0175271 0.0188587 0.0209254 0.0181473 0.0165047 0.017974 0.0154041 0.0123525 0.0110798 0.0106285 0.0106472 0.0108214 0.0109969 0.0110808 0.0111129 0.011099 0.0110308 0.0109206 0.0107478 0.0105479 0.0102983 0.0100783 0.00988383 0.009805 0.00986762 0.0100674 0.0104436 0.0109407 0.0115946 0.0124622 0.0135673 0.0151216 0.01665 0.0183287 0.0203386 0.0167092 0.0151715 0.0172309 0.0141236 0.0118516 0.0109987 0.0107178 0.0107466 0.0108746 0.0109755 0.0110173 0.0110335 0.0110271 0.0109971 0.0109537 0.0108874 0.0108199 0.0107397 0.0106881 0.0106638 0.0107049 0.0108298 0.0110222 0.0113191 0.0116765 0.0121534 0.0127543 0.0135671 0.0145886 0.0158182 0.0168426 0.0182846 0.0166906 0.01553 0.0148697 0.0131732 0.011847 0.0111824 0.0109067 0.0108695 0.0109147 0.0109664 0.0109567 0.0109511 0.0109513 0.0109603 0.0109862 0.0110241 0.0110862 0.0111616 0.0112663 0.0113911 0.0115412 0.0117231 0.011909 0.0121368 0.0123637 0.0126696 0.0130281 0.0135665 0.0141835 0.0150396 0.0155812 0.016444 0.0153346 0.0146941 0.0140356 0.0128822 0.0119691 0.0114322 0.0111474 0.0110285 0.0109814 0.0108687 0.0108301 0.0108184 0.0108366 0.0108917 0.0109918 0.0111353 0.0113274 0.0115543 0.0118125 0.0120812 0.0123377 0.0125769 0.0127552 0.0129153 0.0130088 0.0131393 0.0132626 0.0135337 0.0138186 0.0143276 0.0145617 0.0150334 0.0144401 0.0140052 0.0133441 0.0125827 0.0119259 0.0114845 0.0111963 0.0110331 0.0109293 0.010724 0.0106578 0.0106393 0.0106744 0.0107746 0.0109494 0.0112 0.0115274 0.0119134 0.0123377 0.0127636 0.0131392 0.0134451 0.0136145 0.0137023 0.013648 0.0135899 0.0134778 0.0134929 0.013505 0.0137198 0.0137444 0.0139555 0.0135484 0.0132807 0.0127945 0.0123029 0.0118198 0.0114597 0.0111748 0.0109779 0.0108264 
        </DataArray>
        <DataArray Name="vz" NumberOfComponents="1" type="Float32" format="ascii">
0 0 0 0 0 0 0 0 0 0 0 0 0 0 0 0 0 0 0 0 0 0 0 0 0 0 0 0 0 0 0 0 0 0 0 0 0 0 0 0 0 0 0 0 0 0 0 0 0 0 0 0 0 0 0 0 0 0 0 0 0 0 0 0 0 0 0 0 0 0 0 0 0 0 0 0 0 0 0 0 0 0 0 0 0 0 0 0 0 0 0 0 0 0 0 0 0 0 0 0 0 0 0 0 0 0 0 0 0 0 0 0 0 0 0 0 0 0 0 0 0 0 0 0 0 0 0 0 0 0 0 0 0 0 0 0 0 0 0 0 0 0 0 0 0 0 0 0 0 0 0 0 0 0 0 0 0 0 0 0 0 0 0 0 0 0 0 0 0 0 0 0 0 0 0 0 0 0 0 0 0 0 0 0 0 0 0 0 0 0 0 0 0 0 0 0 0 0 0 0 0 0 0 0 0 0 0 0 0 0 0 0 0 0 0 0 0 0 0 0 0 0 0 0 0 0 0 0 0 0 0 0 0 0 0 0 0 0 0 0 0 0 0 0 0 0 0 0 0 0 0 0 0 0 0 0 0 0 0 0 0 0 0 0 0 0 0 0 0 0 0 0 0 0 0 0 0 0 0 0 0 0 0 0 0 0 0 0 0 0 0 0 0 0 0 0 0 0 0 0 0 0 0 0 0 0 0 0 0 0 0 0 0 0 0 0 0 0 0 0 0 0 0 0 0 0 0 0 0 0 0 0 0 0 0 0 0 0 0 0 0 0 0 0 0 0 0 0 0 0 0 0 0 0 0 0 0 0 0 0 0 0 0 0 0 0 0 0 0 0 0 0 0 0 0 0 0 0 0 0 0 0 0 0 0 0 0 0 0 0 0 0 0 0 0 0 0 0 0 0 0 0 0 0 0 0 0 0 0 0 0 0 0 0 0 0 0 0 0 0 0 0 0 0 0 0 0 0 0 0 0 0 0 0 0 0 0 0 0 0 0 0 0 0 0 0 0 0 0 0 0 0 0 0 0 0 0 0 0 0 0 0 0 0 0 0 0 0 0 0 0 0 0 0 0 0 0 0 0 0 0 0 0 0 0 0 0 0 0 0 0 0 0 0 0 0 0 0 0 0 0 0 0 0 0 0 0 0 0 0 0 0 0 0 0 0 0 0 0 0 0 0 0 0 0 0 0 0 0 0 0 0 0 0 0 0 0 0 0 0 0 0 0 0 0 0 0 0 0 0 0 0 0 0 0 0 0 0 0 0 0 0 0 0 0 0 0 0 0 0 0 0 0 0 0 0 0 0 0 0 0 0 0 0 0 0 0 0 0 0 0 0 0 0 0 0 0 0 0 0 0 0 0 0 0 0 0 0 0 0 0 0 0 0 0 0 0 0 0 0 0 0 0 0 0 0 0 0 0 0 0 0 0 0 0 0 0 0 0 0 0 0 0 0 0 0 0 0 0 0 0 0 0 0 0 0 0 0 0 0 0 0 0 0 0 0 0 0 0 0 0 0 0 0 0 0 0 0 0 0 0 0 0 0 0 0 0 0 0 0 0 0 0 0 0 0 0 0 0 0 0 0 0 0 0 0 0 0 0 0 0 0 0 0 0 0 0 0 0 0 0 0 0 0 0 0 0 0 0 0 0 0 0 0 0 0 0 0 0 0 0 0 0 0 0 0 0 0 0 0 0 0 0 0 0 0 0 0 0 0 0 0 0 0 0 0 0 0 0 0 0 0 0 0 0 0 0 0 0 0 0 0 0 0 0 0 0 0 0 0 0 0 0 0 0 0 0 0 0 0 0 0 0 0 0 0 0 0 0 0 0 0 0 0 0 0 0 0 0 0 0 0 0 0 0 0 0 0 0 0 0 0 0 0 0 0 0 0 0 0 0 0 0 0 0 0 0 0 0 0 0 0 0 0 0 0 0 0 0 0 0 0 0 0 0 0 0 0 0 0 0 0 0 0 0 0 0 0 0 0 0 0 0 0 0 0 0 0 0 0 0 0 0 0 0 0 0 0 0 0 0 0 0 0 0 0 0 0 0 0 0 0 0 0 0 0 0 0 0 0 0 0 0 0 0 0 0 0 0 0 0 0 0 0 0 0 0 0 0 0 0 0 0 0 0 0 0 0 0 0 0 0 0 0 0 0 0 0 0 0 0 0 0 0 0 0 0 0 0 0 0 0 0 0 0 0 0 0 0 0 0 0 0 0 0 0 0 0 0 0 0 0 0 0 0 0 0 0 0 0 0 0 0 0 0 0 0 0 0 0 0 0 0 0 0 0 0 0 0 0 0 0 0 0 
        </DataArray>
        <DataArray Name="p" NumberOfComponents="1" type="Float32" format="ascii">