<?xml version="1.0"?>
<VTKFile type="StructuredGrid" version="0.1" byte_order="LittleEndian">
  <StructuredGrid WholeExtent="0 32 0 32 0 1">
    <Piece Extent="0 32 0 32 0 1">
      <PointData>
      </PointData>
      <CellData>
        <DataArray Name="vx" NumberOfComponents="1" type="Float32" format="ascii">
0.021407 0.0216267 0.0218591 0.022095 0.0223079 0.0224776 0.0225643 0.0225427 0.0223623 0.0220101 0.0214546 0.0207281 0.0198683 0.01896 0.018092 0.0173405 0.0168139 0.016496 0.0164886 0.0166505 0.0171037 0.0176391 0.0183342 0.0190237 0.0195292 0.0200447 0.0203959 0.0206424 0.0207893 0.0209262 0.0210547 0.0212188 0.0211825 0.0214586 0.0217529 0.022058 0.0223499 0.0226112 0.0227946 0.0228764 0.0227806 0.0224894 0.0219381 0.021161 0.0202017 0.0191687 0.0181715 0.0173228 0.0167483 0.0164459 0.0164914 0.0167196 0.0172035 0.0177293 0.0183408 0.0189019 0.0193294 0.0197276 0.0199901 0.0202127 0.0203709 0.0205441 0.0207225 0.0209387 0.0209302 0.0212524 0.0216024 0.0219774 0.0223557 0.0227294 0.0230392 0.0232722 0.0233114 0.02313 0.0226051 0.021759 0.0206505 0.0194165 0.0182147 0.017202 0.0165446 0.0162578 0.0163876 0.0167172 0.0172905 0.0178515 0.0184439 0.0189131 0.0192503 0.0195399 0.0197015 0.0198745 0.0200101 0.0201915 0.0203953 0.0206451 0.0206351 0.02099 0.0213844 0.0218242 0.0222895 0.0227945 0.023264 0.0237215 0.0239806 0.0240017 0.023539 0.0225916 0.0212768 0.0197399 0.0182327 0.0169682 0.0161885 0.0159389 0.0162159 0.0167022 0.0174265 0.0180573 0.0186619 0.0190473 0.0192813 0.0194527 0.0194865 0.0195888 0.0196755 0.0198457 0.0200561 0.0203237 0.0202659 0.0206364 0.0210582 0.0215517 0.0221007 0.0227631 0.0234515 0.0242724 0.0249254 0.0253315 0.0250326 0.0239295 0.0222482 0.0201681 0.0181427 0.0164605 0.015505 0.0153693 0.0159197 0.0166677 0.0176321 0.018365 0.019019 0.0192921 0.0193928 0.019448 0.0193124 0.0193292 0.0193368 0.0194783 0.0196768 0.0199455 0.0198399 0.0202032 0.0206259 0.0211501 0.0217678 0.0226214 0.0236269 0.025063 0.0263926 0.0274473 0.0272627 0.0257625 0.0235575 0.0206599 0.0178997 0.0155631 0.0142789 0.0143615 0.0153984 0.0165923 0.0179125 0.0187712 0.0194371 0.0195179 0.0194587 0.0193818 0.0190593 0.019015 0.0189541 0.0190801 0.0192664 0.0195275 0.0193123 0.0196443 0.0200393 0.020571 0.0212507 0.0223603 0.0238424 0.0262353 0.0285192 0.030359 0.0302372 0.0280581 0.0250334 0.0210123 0.0172747 0.0140363 0.0122497 0.0126548 0.0144269 0.0163074 0.0181373 0.0191139 0.0197996 0.0194961 0.0192192 0.0191473 0.018654 0.0186209 0.0185024 0.0186202 0.0187874 0.019027 0.0187752 0.0190429 0.019369 0.0198652 0.0205843 0.021995 0.0240918 0.0276953 0.0308063 0.0328611 0.0309348 0.0271328 0.0247831 0.0211073 0.0178903 0.0139433 0.0105543 0.0107823 0.0131017 0.0157284 0.0181384 0.019273 0.0197861 0.0188087 0.0183547 0.0183285 0.017755 0.0179445 0.0179146 0.0181211 0.0183115 0.0185345 0.0181466 0.0183232 0.0185497 0.0189708 0.0196838 0.0213143 0.0238061 0.0280215 0.0301322 0.0301949 0.0263716 0.022203 0.0220315 0.0205316 0.0195243 0.0160935 0.0112304 0.0106048 0.012619 0.0154247 0.0181507 0.0193676 0.0198078 0.0177654 0.0170124 0.0172881 0.0166836 0.0172294 0.017323 0.0175939 0.0177915 0.0179713 0.0176335 0.017666 0.0177238 0.0179382 0.0184426 0.019829 0.0220247 0.0255199 0.0257944 0.0227238 0.0225978 0.0216089 0.0195627 0.0192634 0.0173241 0.015796 0.0141856 0.0132664 0.0141821 0.0159532 0.0185902 0.0207991 0.0206463 0.0177257 0.0179364 0.0172025 0.0155924 0.0164763 0.0168049 0.0172048 0.0174343 0.0175572 0.017063 0.0169176 0.0167621 0.0166545 0.0167183 0.0172612 0.018289 0.0193039 0.018784 0.0147308 0.0140074 0.0157618 0.0169243 0.0199256 0.0216654 0.0234809 0.0228956 0.0219113 0.020667 0.0196452 0.0204368 0.0226501 0.0216013 0.0182056 0.0192016 0.0184543 0.0169529 0.0171378 0.0170641 0.0170944 0.0171687 0.0171267 0.0167588 0.0163793 0.0159191 0.015257 0.0143985 0.0129886 0.0110097 0.0074521 0.00559373 0.0044413 0.00612518 0.0107234 0.0153157 0.0207145 0.02563 0.0300282 0.0317585 0.0298756 0.026179 0.0232213 0.0206268 0.0184808 0.0157851 0.0161982 0.014189 0.0140182 0.0176057 0.0175923 0.0176052 0.0173199 0.0172441 0.0170083 0.0163953 0.0158048 0.0150338 0.0137842 0.011874 0.00842867 0.00344881 -0.00299834 -0.0045029 -0.00167995 0.00339482 0.00971348 0.015291 0.0210474 0.0267976 0.0322894 0.0369489 0.0356848 0.0322368 0.0293368 0.0235915 0.0188306 0.0152268 0.0149167 0.0128609 0.0141986 0.0177281 0.0175321 0.0177667 0.0173823 0.017191 0.0168061 0.0164291 0.0157077 0.0147716 0.0132092 0.0107365 0.00617722 -0.000467451 -0.00773515 -0.00821562 -0.00300849 0.00342108 0.0101614 0.015879 0.0215623 0.0274289 0.0335079 0.0400462 0.041993 0.0405517 0.0361502 0.0283724 0.0222134 0.0180991 0.0160409 0.017952 0.0213153 0.0200748 0.0185483 0.0183742 0.0178963 0.0174919 0.0169795 0.0165296 0.0157566 0.0147829 0.0132096 0.0107531 0.00632344 -0.000301058 -0.0072926 -0.00764552 -0.00249879 0.00401946 0.010758 0.0165242 0.0222841 0.028131 0.0342184 0.0408065 0.0436388 0.0422686 0.038105 0.0318974 0.0273397 0.0254961 0.0269317 0.0259129 0.0229775 0.0212915 0.0199196 0.0192364 0.0185106 0.017828 0.0171822 0.0169757 0.0163249 0.0156257 0.0145785 0.0133161 0.010841 0.00794235 0.00332076 0.000229299 0.00144038 0.00614063 0.0120253 0.0175661 0.0235208 0.0292801 0.0347347 0.0397421 0.0395776 0.0364053 0.034146 0.0308869 0.028429 0.0277201 0.0286693 0.0271041 0.0237986 0.0220065 0.0208506 0.0198733 0.0190412 0.0182499 0.0175963 0.0174628 0.0169661 0.0165328 0.0160421 0.0158293 0.0154306 0.0157233 0.0138686 0.0110975 0.00903706 0.0100452 0.014043 0.0189724 0.0250215 0.0303062 0.0344462 0.0359121 0.0347624 0.0325977 0.0303128 0.0287688 0.0278903 0.0279528 0.0279594 0.0265424 0.0244927 0.0228763 0.0216624 0.0204216 0.0194872 0.0186402 0.0180151 0.0180676 0.0177687 0.0176045 0.0176006 0.0181479 0.0192128 0.0216479 0.0223705 0.0223162 0.0204959 0.0185891 0.0185474 0.0204294 0.0251473 0.0281745 0.029547 0.0270126 0.0271013 0.0275616 0.0251108 0.0258836 0.0263421 0.0270752 0.0271656 0.0263941 0.0248948 0.0231785 0.0218866 0.0206026 0.0197307 0.018982 0.0184804 0.0186453 0.0185037 0.0184927 0.0187341 0.0194892 0.0211549 0.0240085 0.0271722 0.0265212 0.0241466 0.0238473 0.0215582 0.020725 0.0225981 0.0228832 0.0221773 0.0216489 0.021017 0.0206993 0.021371 0.0234859 0.0247999 0.025771 0.0260595 0.0260952 0.0249151 0.0229635 0.0217132 0.020526 0.0198173 0.0192484 0.0189089 0.0191964 0.0192057 0.019309 0.0196584 0.0203768 0.0219484 0.0244241 0.0279834 0.0287979 0.0269322 0.0244516 0.0231408 0.0221464 0.0190123 0.0170094 0.014249 0.0131763 0.0144158 0.0161935 0.0189801 0.0216136 0.0232013 0.0238365 0.0242911 0.0253783 0.0244581 0.0221873 0.0210768 0.0201726 0.0197139 0.019415 0.0192817 0.0197195 0.0198431 0.0200079 0.0203581 0.020926 0.0221169 0.023885 0.0267061 0.0286128 0.028548 0.0259753 0.023308 0.0208162 0.0160348 0.0127579 0.0107354 0.0103462 0.0124768 0.0153274 0.0179909 0.0198 0.0198807 0.0182338 0.019949 0.0253188 0.0248328 0.0207514 0.01977 0.0194357 0.0194196 0.0195116 0.0196231 0.0201639 0.0203875 0.0206026 0.0209338 0.0213604 0.0221599 0.0231898 0.0248644 0.0261366 0.026567 0.0252461 0.0224904 0.019376 0.0153038 0.0124045 0.0110959 0.011291 0.0130484 0.0151287 0.0167096 0.0178078 0.0159469 0.0131542 0.0159773 0.0223482 0.0238619 0.0198884 0.0183681 0.0186695 0.0190495 0.019548 0.0198963 0.0206233 0.0208958 0.0211225 0.0214069 0.0217204 0.0222361 0.0227945 0.0236423 0.024232 0.0243327 0.0233647 0.0213368 0.0189535 0.0160282 0.0139508 0.0130409 0.0131523 0.0142977 0.0157498 0.0171341 0.018766 0.020578 0.0214638 0.0187615 0.0116714 0.0130657 0.0160908 0.0158234 0.0178363 0.0187192 0.0196814 0.0202282 0.0210387 0.0213101 0.0215188 0.0217534 0.0219825 0.0223063 0.0225815 0.0229281 0.0230389 0.0228244 0.0220319 0.0205205 0.0187375 0.0166837 0.015111 0.01426 0.0139519 0.0143282 0.0146823 0.0152913 0.0165064 0.0175941 0.0178312 0.0153159 0.00962661 0.00734092 0.0102959 0.0143769 0.0174024 0.0189457 0.0200132 0.02064 0.0214696 0.0216824 0.0218406 0.0220092 0.0221597 0.0223466 0.0224564 0.0225366 0.0224003 0.0220005 0.0212335 0.0200203 0.01865 0.0171269 0.0158779 0.015052 0.014536 0.0144529 0.014275 0.0143193 0.0132871 0.0132731 0.0142118 0.0135648 0.0125062 0.0104597 0.0122293 0.0162591 0.0182901 0.0197713 0.0206249 0.0211531 0.0218911 0.0219735 0.0220519 0.0221549 0.0222423 0.0223339 0.0223429 0.0222763 0.0220203 0.0215402 0.0208065 0.0197697 0.0186168 0.0173669 0.0162639 0.0154012 0.0147307 0.0143516 0.0139251 0.013921 0.0126929 0.0128186 0.0140411 0.0151471 0.0176944 0.0196581 0.0217046 0.0219196 0.0213933 0.0216385 0.0217115 0.0218215 0.0221253 0.0221408 0.0221729 0.02223 0.0222715 0.0222979 0.0222431 0.0220972 0.0217872 0.0212864 0.0205895 0.0196742 0.0186702 0.0175964 0.0166151 0.0157823 0.0151232 0.0146935 0.0144179 0.0146252 0.0146541 0.0157507 0.0165161 0.0176352 0.0210472 0.0227972 0.0235036 0.0232789 0.0224763 0.0223936 0.0222132 0.0221612 0.0222115 0.0221863 0.0221953 0.0222324 0.0222541 0.0222487 0.0221637 0.0219813 0.0216538 0.0211601 0.020505 0.0196807 0.018778 0.0178188 0.0169227 0.0161193 0.0154844 0.0150109 0.0148189 0.0149492 0.0156096 0.0166233 0.0178795 0.0185452 0.0180745 0.0198056 0.0224739 0.0230585 0.0229661 0.0227644 0.0224831 0.0223177 0.0221661 0.0221521 0.0221717 0.0222127 0.0222351 0.0222215 0.0221293 0.0219381 0.0216133 0.0211395 0.0205228 0.019766 0.0189373 0.0180614 0.0172361 0.0164796 0.0158919 0.015437 0.0152974 0.0153777 0.0160427 0.0169001 0.0186947 0.0199482 0.0192395 0.0207594 0.0229446 0.0231633 0.0229836 0.0227011 0.0224203 0.0222582 0.0220147 0.0220441 0.0221005 0.0221707 0.0222179 0.0222222 0.0221465 0.0219694 0.0216624 0.0212137 0.0206274 0.0199152 0.0191303 0.0183055 0.0175257 0.0168097 0.0162646 0.0158446 0.0157401 0.0158081 0.0164033 0.0171674 0.0185916 0.0199703 0.0203664 0.0214423 0.0224279 0.0225955 0.0225051 0.0223262 0.0221448 0.0220511 0.0218289 0.0219191 0.0220272 0.0221412 0.0222288 0.0222693 0.0222281 0.0220827 0.0218041 0.0213823 0.0208154 0.0201229 0.0193491 0.0185392 0.0177723 0.0170783 0.0165625 0.0161849 0.0161125 0.0162009 0.0167284 0.0173996 0.0185182 0.0196468 0.0201836 0.0210289 0.0216805 0.0218814 0.0218915 0.0218434 0.021785 0.0217873 0.0216178 0.0217742 0.0219437 0.0221151 0.0222596 0.0223559 0.0223686 0.0222736 0.0220353 0.0216435 0.0210856 0.0203882 0.019591 0.0187561 0.0179632 0.0172613 0.0167539 0.0164113 0.0163671 0.0164834 0.0169509 0.0175365 0.0183872 0.0192732 0.0198586 0.0205167 0.0209669 0.0212029 0.0212987 0.0213602 0.0214079 0.0214987 
        </DataArray>
        <DataArray Name="vy" NumberOfComponents="1" type="Float32" format="ascii">
0.0107017 0.010598 0.0105579 0.0105896 0.0107099 0.0109261 0.0112505 0.0116679 0.0121801 0.012722 0.0132815 0.0137407 0.0140995 0.0142537 0.0142644 0.014075 0.0138312 0.0135135 0.013308 0.0131369 0.0131487 0.0131252 0.0132085 0.0130589 0.0129055 0.0126741 0.0123219 0.0119509 0.0116116 0.0113057 0.0110596 0.010854 0.010469 0.0103414 0.0102903 0.0103271 0.0104777 0.010751 0.0111749 0.0117235 0.01242 0.0131572 0.013937 0.0145621 0.0150347 0.0151956 0.0151214 0.0147467 0.0142585 0.0136672 0.0132054 0.0128204 0.0126539 0.0125481 0.012571 0.0125105 0.0124318 0.0122926 0.0120476 0.0117551 0.0114528 0.0111511 0.0108861 0.010651 0.0101824 0.0100285 0.00996069 0.00999267 0.0101616 0.0104779 0.0109953 0.0116732 0.0125829 0.0135519 0.014626 0.0154635 0.0160953 0.0162777 0.0161045 0.0155015 0.0147039 0.0137774 0.0130295 0.0124357 0.0121289 0.012 0.0120225 0.0120794 0.012068 0.012021 0.0118301 0.0115762 0.0112748 0.010957 0.0106631 0.0103952 0.00986219 0.00966825 0.00956616 0.00956975 0.0097301 0.0100576 0.0106448 0.0114319 0.0125828 0.0138365 0.0153277 0.0164988 0.0173909 0.0176363 0.0173342 0.0164252 0.0151933 0.0138271 0.0127362 0.0119227 0.0115053 0.0114084 0.0114906 0.0117246 0.0117855 0.011861 0.0116983 0.0114604 0.01113 0.0107726 0.010432 0.0101177 0.00951438 0.0092766 0.00912922 0.00908286 0.0092013 0.00949009 0.0100931 0.0109309 0.0123486 0.0139613 0.0160885 0.0176818 0.018945 0.0193055 0.0188436 0.0175668 0.0157259 0.01377 0.0122726 0.0112399 0.010771 0.0107802 0.0110179 0.0114811 0.0116372 0.0118457 0.0116683 0.0114039 0.0110025 0.0105789 0.0101784 0.00981381 0.00917546 0.00887547 0.00865628 0.00851938 0.00853318 0.00868405 0.00916952 0.00990769 0.011574 0.0136503 0.0167769 0.0192466 0.0212029 0.0217892 0.0210386 0.0190927 0.0162447 0.0134067 0.0114179 0.0101994 0.00979538 0.0100289 0.0105415 0.0113718 0.0115896 0.0119855 0.0117753 0.0114663 0.0109653 0.0104468 0.00996558 0.00953372 0.00883434 0.00848278 0.00818565 0.00792669 0.00774808 0.00759737 0.00770418 0.00810948 0.0100844 0.0130376 0.0179483 0.0212285 0.023996 0.0249125 0.0237789 0.0212998 0.0169087 0.0127224 0.0100786 0.00873952 0.00861054 0.00924317 0.0102775 0.0114741 0.0117443 0.012321 0.0119876 0.0115588 0.0109098 0.0102769 0.0097187 0.00923506 0.00856526 0.00814819 0.00774183 0.00729585 0.00677441 0.00605128 0.00536158 0.00511971 0.00754696 0.0116807 0.0191476 0.0243772 0.0284448 0.029759 0.0280378 0.0241796 0.0174575 0.0112077 0.00772667 0.00643702 0.00702357 0.00834823 0.0101914 0.0118808 0.0119162 0.0126148 0.0121897 0.0116588 0.0109152 0.0101784 0.00955322 0.00901548 0.00832144 0.00787705 0.00736577 0.00668592 0.00563729 0.00402978 0.00207033 0.00129818 0.00514077 0.0129354 0.0243784 0.0266781 0.0298109 0.0316239 0.030321 0.0290928 0.0200778 0.0103394 0.00522545 0.00366019 0.00512304 0.00742491 0.0108848 0.012851 0.0122319 0.0130833 0.0123051 0.0115347 0.0107075 0.00992021 0.0092956 0.00876974 0.00821843 0.00774435 0.00710981 0.00615289 0.0044727 0.00189615 -0.0012549 -0.00133708 0.00560055 0.0146004 0.0269633 0.0287863 0.030906 0.0329371 0.0326364 0.032475 0.0222305 0.0100229 0.00286532 0.000808681 0.00329369 0.00663341 0.0120741 0.0138561 0.0128468 0.0130231 0.0119826 0.0110313 0.0104191 0.0097012 0.0091485 0.00865874 0.00821541 0.00777923 0.00709133 0.00594317 0.00373589 0.000369911 -0.00367341 -0.00269714 0.00782243 0.0167654 0.0259023 0.0297335 0.0315379 0.0332164 0.0337575 0.0323774 0.0231101 0.0101323 0.00248598 -0.000974181 0.000324004 0.00477064 0.0147999 0.0155291 0.0126305 0.0154925 0.0129283 0.0105828 0.0100069 0.00938234 0.00896182 0.00858358 0.00842408 0.00804351 0.00737775 0.00620913 0.00388467 0.000405774 -0.00332786 -0.00129971 0.010132 0.0193862 0.0250175 0.0262637 0.0269159 0.0282716 0.0296772 0.0304476 0.0241519 0.0120255 0.00565478 0.00100594 0.000592474 0.00555591 0.0163325 0.0164839 0.0121951 0.015921 0.0125272 0.0108847 0.0102415 0.00952622 0.0090674 0.00874281 0.00886023 0.00862905 0.00821233 0.00748203 0.00597215 0.00377216 0.00168911 0.00273928 0.010501 0.0166127 0.0197469 0.0206699 0.0213858 0.0226774 0.0244456 0.0261214 0.0236391 0.0154155 0.00889278 0.00484455 0.00479451 0.00931715 0.0168382 0.0176429 0.014004 0.0128654 0.00934475 0.0108723 0.010463 0.00983208 0.0093436 0.00909171 0.00941635 0.009398 0.00937619 0.00936642 0.0092079 0.008845 0.00814974 0.00669909 0.00887699 0.011445 0.0134191 0.0145231 0.0155913 0.0168518 0.0185611 0.0202829 0.0206828 0.0170508 0.0114178 0.0103573 0.0108424 0.0144988 0.0202002 0.0197233 0.0107042 0.0113018 0.00921622 0.0109828 0.010446 0.0100183 0.00963939 0.00951111 0.0101435 0.0103146 0.0107265 0.0115864 0.0130434 0.0150762 0.0156764 0.01022 0.00578453 0.00494363 0.0064501 0.00826275 0.00984658 0.011092 0.0124221 0.0135215 0.0149996 0.0154474 0.0141216 0.01725 0.0178919 0.0195443 0.0216368 0.0193528 0.00950659 0.0118351 0.0116831 0.0120015 0.0111493 0.010666 0.0102913 0.0101627 0.0108214 0.0111309 0.0118726 0.0133486 0.0159853 0.0197154 0.0215545 0.0138444 0.00450481 -9.3228e-05 0.000233433 0.00218879 0.0040655 0.00536613 0.00664991 0.00771449 0.0111367 0.0160688 0.0165066 0.0208221 0.0217994 0.0217046 0.0211167 0.018495 0.0141917 0.0142776 0.0135208 0.012923 0.0119565 0.0113772 0.010962 0.010794 0.011423 0.0117076 0.0124967 0.0140159 0.0168591 0.0207393 0.0235036 0.0176597 0.00789018 -0.00146778 -0.0042832 -0.00317152 -0.00186596 -0.000685129 0.0010567 0.00290152 0.0096764 0.0193552 0.0190562 0.0229477 0.0237543 0.0226766 0.0213185 0.0191437 0.0164653 0.0159142 0.014928 0.0140125 0.0130298 0.0122954 0.0117556 0.0114566 0.0118466 0.0120537 0.0127439 0.0140333 0.0164769 0.0197794 0.0228989 0.0185896 0.00911545 0.000953834 -0.00434976 -0.00659759 -0.00690177 -0.00582965 -0.00258152 0.0020356 0.0113576 0.0188624 0.0211323 0.0246589 0.0241961 0.0225031 0.0211374 0.0195083 0.0180538 0.0175657 0.0164871 0.0152987 0.0141303 0.0131376 0.0124172 0.0119684 0.0121356 0.0122004 0.0126694 0.0135455 0.0152161 0.0174302 0.0199707 0.0177495 0.0098106 0.00239914 -0.00271353 -0.00480113 -0.00896212 -0.00857078 -0.00319578 0.00272533 0.0132401 0.0181868 0.0221455 0.0239221 0.0227114 0.0213433 0.0206435 0.0196333 0.019054 0.0190214 0.018016 0.0165804 0.0152018 0.0139257 0.0130051 0.0123868 0.012236 0.0121992 0.0124815 0.0130208 0.013988 0.0152497 0.016721 0.016162 0.0115109 0.00392946 -0.0018433 -0.00331029 -0.0080909 -0.00766135 -0.00169936 0.00394612 0.0130254 0.0186669 0.0211033 0.0216168 0.0208665 0.0201549 0.0198831 0.0188823 0.0191048 0.0207127 0.0196943 0.0177585 0.0160356 0.0144274 0.01332 0.0125749 0.0122104 0.0120986 0.0122244 0.0124987 0.0129263 0.0134242 0.0138675 0.0134815 0.0108272 0.00664922 0.000998541 -0.0021833 -0.0046135 -0.00359986 0.00111165 0.00641547 0.0122415 0.0158461 0.0177454 0.0184096 0.0184621 0.0190585 0.0198896 0.0181569 0.0191507 0.0223399 0.0213113 0.0185402 0.0165151 0.0146545 0.0134189 0.012604 0.0120177 0.0119043 0.0119573 0.0120876 0.012217 0.0122885 0.0121203 0.0115304 0.00965339 0.00691637 0.00335727 0.00120047 -0.000453727 0.000338883 0.00351415 0.00707513 0.0109557 0.0137179 0.0156512 0.0172515 0.0190793 0.0223802 0.0195251 0.010726 0.0132266 0.0258661 0.0248564 0.0191906 0.016499 0.0143923 0.0131521 0.0123772 0.0117122 0.0116567 0.0116872 0.0117413 0.0117162 0.0115892 0.0111674 0.0105132 0.00909691 0.00743452 0.00513377 0.00362406 0.00270628 0.00326724 0.00522445 0.00755166 0.0100464 0.0120304 0.0139133 0.0156448 0.0184237 0.0232291 0.0199184 0.0110067 0.0122188 0.0248402 0.0263301 0.0193902 0.0156971 0.0136533 0.0125283 0.0119572 0.0113727 0.011404 0.0114498 0.0114766 0.0113934 0.0111996 0.0107324 0.0101033 0.00899755 0.00783653 0.00638085 0.00547759 0.00495185 0.00532253 0.00652079 0.00801413 0.00968515 0.0112277 0.0128389 0.0142664 0.0157008 0.0210934 0.0210527 0.018905 0.0179952 0.0212936 0.0231155 0.0171028 0.0139943 0.0125657 0.0117438 0.0114553 0.0110297 0.0111673 0.0112492 0.0112735 0.0111782 0.0109807 0.0105636 0.0100363 0.00921066 0.00840343 0.00745769 0.00686936 0.00658159 0.00684893 0.00763304 0.00869558 0.00993126 0.0113416 0.0128981 0.0147178 0.0154862 0.0216601 0.0213445 0.0203059 0.0208037 0.023556 0.0192208 0.0122414 0.0112171 0.0109532 0.010801 0.0108954 0.0108669 0.0110393 0.0111298 0.0111502 0.0110623 0.0108902 0.0105563 0.0101486 0.00955571 0.00899745 0.00838716 0.00802849 0.00788167 0.00808811 0.00862564 0.0093923 0.0103231 0.0115348 0.0129895 0.0150817 0.0165399 0.0206856 0.0207062 0.0204945 0.0207989 0.0218158 0.0168797 0.01125 0.0104064 0.0103334 0.0104146 0.0106505 0.0108526 0.0109941 0.0110672 0.0110793 0.0110077 0.0108747 0.0106337 0.0103486 0.0099577 0.00960109 0.00923691 0.00903639 0.00899304 0.00917732 0.00958722 0.0101853 0.0109428 0.0120083 0.0133194 0.0154146 0.0171167 0.019521 0.0194513 0.0168469 0.0166079 0.0199891 0.0168927 0.0128405 0.0112171 0.0105919 0.0105252 0.0106755 0.0109029 0.0109989 0.0110448 0.0110481 0.0109974 0.0109114 0.0107632 0.0105962 0.010376 0.0101877 0.0100099 0.009938 0.00997183 0.0101425 0.0104585 0.0109005 0.0114695 0.0122678 0.0132567 0.0147886 0.0161631 0.0183688 0.0190581 0.0158733 0.0154784 0.0189278 0.0158633 0.0124911 0.0112334 0.0107182 0.0106743 0.0107779 0.0109709 0.0110058 0.0110212 0.0110198 0.0109962 0.0109636 0.0109076 0.0108546 0.0107851 0.0107441 0.0107203 0.010756 0.0108562 0.0110244 0.01128 0.0116043 0.0120306 0.0126066 0.0133625 0.0144215 0.015546 0.0168508 0.0176681 0.0164211 0.0155972 0.0158273 0.0140174 0.0123591 0.0114864 0.011053 0.0109329 0.0109315 0.0110125 0.0109948 0.010984 0.0109822 0.0109887 0.0110134 0.0110486 0.0111078 0.0111777 0.011274 0.0113863 0.0115199 0.0116785 0.0118438 0.0120434 0.0122514 0.0125269 0.0128761 0.0133793 0.014032 0.0148246 0.015569 0.01617 0.0153643 0.0147633 0.0147846 0.0134769 0.012389 0.0116999 0.0113041 0.0111263 0.0110453 0.0109759 0.0109213 0.0108966 0.0109039 0.0109477 0.0110352 0.011164 0.0113372 0.0115444 0.0117765 0.0120212 0.0122505 0.0124661 0.0126277 0.0127721 0.0128639 0.0129868 0.013122 0.0133892 0.0137171 0.0142086 0.0145696 0.0149415 0.0145516 0.0141426 0.0137917 0.0129824 0.0122827 0.0117663 0.0114116 0.0111991 0.0110609 0.0108788 0.0107952 0.01076 0.0107783 0.0108599 0.0110114 0.0112363 0.0115285 0.0118806 0.0122588 0.012648 0.0129831 0.0132628 0.0134203 0.0135028 0.0134652 0.0134181 0.0133353 0.0133667 0.0134244 0.0136501 0.0137662 0.0139601 0.0136943 0.0134479 0.013171 0.0126454 0.0121491 0.0117397 0.0114141 0.0111813 0.0110034 
        </DataArray>
        <DataArray Name="vz" NumberOfComponents="1" type="Float32" format="ascii">
0 0 0 0 0 0 0 0 0 0 0 0 0 0 0 0 0 0 0 0 0 0 0 0 0 0 0 0 0 0 0 0 0 0 0 0 0 0 0 0 0 0 0 0 0 0 0 0 0 0 0 0 0 0 0 0 0 0 0 0 0 0 0 0 0 0 0 0 0 0 0 0 0 0 0 0 0 0 0 0 0 0 0 0 0 0 0 0 0 0 0 0 0 0 0 0 0 0 0 0 0 0 0 0 0 0 0 0 0 0 0 0 0 0 0 0 0 0 0 0 0 0 0 0 0 0 0 0 0 0 0 0 0 0 0 0 0 0 0 0 0 0 0 0 0 0 0 0 0 0 0 0 0 0 0 0 0 0 0 0 0 0 0 0 0 0 0 0 0 0 0 0 0 0 0 0 0 0 0 0 0 0 0 0 0 0 0 0 0 0 0 0 0 0 0 0 0 0 0 0 0 0 0 0 0 0 0 0 0 0 0 0 0 0 0 0 0 0 0 0 0 0 0 0 0 0 0 0 0 0 0 0 0 0 0 0 0 0 0 0 0 0 0 0 0 0 0 0 0 0 0 0 0 0 0 0 0 0 0 0 0 0 0 0 0 0 0 0 0 0 0 0 0 0 0 0 0 0 0 0 0 0 0 0 0 0 0 0 0 0 0 0 0 0 0 0 0 0 0 0 0 0 0 0 0 0 0 0 0 0 0 0 0 0 0 0 0 0 0 0 0 0 0 0 0 0 0 0 0 0 0 0 0 0 0 0 0 0 0 0 0 0 0 0 0 0 0 0 0 0 0 0 0 0 0 0 0 0 0 0 0 0 0 0 0 0 0 0 0 0 0 0 0 0 0 0 0 0 0 0 0 0 0 0 0 0 0 0 0 0 0 0 0 0 0 0 0 0 0 0 0 0 0 0 0 0 0 0 0 0 0 0 0 0 0 0 0 0 0 0 0 0 0 0 0 0 0 0 0 0 0 0 0 0 0 0 0 0 0 0 0 0 0 0 0 0 0 0 0 0 0 0 0 0 0 0 0 0 0 0 0 0 0 0 0 0 0 0 0 0 0 0 0 0 0 0 0 0 0 0 0 0 0 0 0 0 0 0 0 0 0 0 0 0 0 0 0 0 0 0 0 0 0 0 0 0 0 0 0 0 0 0 0 0 0 0 0 0 0 0 0 0 0 0 0 0 0 0 0 0 0 0 0 0 0 0 0 0 0 0 0 0 0 0 0 0 0 0 0 0 0 0 0 0 0 0 0 0 0 0 0 0 0 0 0 0 0 0 0 0 0 0 0 0 0 0 0 0 0 0 0 0 0 0 0 0 0 0 0 0 0 0 0 0 0 0 0 0 0 0 0 0 0 0 0 0 0 0 0 0 0 0 0 0 0 0 0 0 0 0 0 0 0 0 0 0 0 0 0 0 0 0 0 0 0 0 0 0 0 0 0 0 0 0 0 0 0 0 0 0 0 0 0 0 0 0 0 0 0 0 0 0 0 0 0 0 0 0 0 0 0 0 0 0 0 0 0 0 0 0 0 0 0 0 0 0 0 0 0 0 0 0 0 0 0 0 0 0 0 0 0 0 0 0 0 0 0 0 0 0 0 0 0 0 0 0 0 0 0 0 0 0 0 0 0 0 0 0 0 0 0 0 0 0 0 0 0 0 0 0 0 0 0 0 0 0 0 0 0 0 0 0 0 0 0 0 0 0 0 0 0 0 0 0 0 0 0 0 0 0 0 0 0 0 0 0 0 0 0 0 0 0 0 0 0 0 0 0 0 0 0 0 0 0 0 0 0 0 0 0 0 0 0 0 0 0 0 0 0 0 0 0 0 0 0 0 0 0 0 0 0 0 0 0 0 0 0 0 0 0 0 0 0 0 0 0 0 0 0 0 0 0 0 0 0 0 0 0 0 0 0 0 0 0 0 0 0 0 0 0 0 0 0 0 0 0 0 0 0 0 0 0 0 0 0 0 0 0 0 0 0 0 0 0 0 0 0 0 0 0 0 0 0 0 0 0 0 0 0 0 0 0 0 0 0 0 0 0 0 0 0 0 0 0 0 0 0 0 0 0 0 0 0 0 0 0 0 0 0 0 0 0 0 0 0 0 0 0 0 0 0 0 0 0 0 0 0 0 0 0 0 0 0 0 0 0 0 0 0 0 0 0 0 0 0 0 0 0 0 0 0 0 0 0 0 0 0 0 0 0 0 0 0 0 0 0 0 0 0 0 0 0 0 0 0 0 0 0 0 0 0 0 0 0 0 0 0 0 0 0 0 0 0 0 0 0 0 0 0 0 0 0 0 0 
        </DataArray>
        <DataArray Name="p" NumberOfComponents="1" type="Float32" format="ascii">