<?xml version="1.0"?>
<VTKFile type="StructuredGrid" version="0.1" byte_order="LittleEndian">
  <StructuredGrid WholeExtent="0 32 0 32 0 1">
    <Piece Extent="0 32 0 32 0 1">
      <PointData>
      </PointData>
      <CellData>
        <DataArray Name="vx" NumberOfComponents="1" type="Float32" format="ascii">
0.0213319 0.0215006 0.0216833 0.0218739 0.0220435 0.0221804 0.0222402 0.0222106 0.0220381 0.0217174 0.0212214 0.020569 0.0198097 0.018992 0.018218 0.0175374 0.0170526 0.0167598 0.0167335 0.0168876 0.0172901 0.0178152 0.018485 0.0191655 0.0197088 0.0202382 0.020597 0.0208088 0.0209248 0.0210086 0.0210863 0.0211966 0.0210893 0.021315 0.0215569 0.0218132 0.0220539 0.0222745 0.022419 0.0224831 0.0223859 0.0221224 0.0216363 0.0209449 0.0201139 0.0191933 0.0183215 0.0175643 0.0170455 0.016775 0.0168048 0.0170235 0.0174658 0.0179768 0.0185641 0.0191131 0.019548 0.0199309 0.0201786 0.0203609 0.0204797 0.0206039 0.0207317 0.0208975 0.0208191 0.0210917 0.0213863 0.0217082 0.0220245 0.0223457 0.0225983 0.0227971 0.0228192 0.0226586 0.0222087 0.021467 0.0205271 0.0194358 0.0184006 0.0175091 0.0169254 0.016679 0.0167871 0.017104 0.0176312 0.018171 0.018733 0.019184 0.0195102 0.0197583 0.0198895 0.0200133 0.0200999 0.0202327 0.0203837 0.0205858 0.0205092 0.0208165 0.0211524 0.021534 0.0219247 0.0223622 0.0227516 0.0231507 0.0233651 0.0233877 0.0230006 0.0221818 0.0210994 0.0197545 0.0184857 0.0173862 0.0166922 0.016483 0.0167093 0.0171739 0.0178351 0.0184424 0.0190116 0.0193784 0.0195939 0.0196915 0.0196802 0.0197189 0.0197463 0.019868 0.0200242 0.0202483 0.0201311 0.0204578 0.0208196 0.0212502 0.0217099 0.0222835 0.0228584 0.0235772 0.0241354 0.0245073 0.024288 0.0233565 0.0219949 0.0201772 0.0184769 0.0170238 0.0161803 0.016076 0.016525 0.0172388 0.0181097 0.0188182 0.0194186 0.0196898 0.0197735 0.0196975 0.0195111 0.0194465 0.0193886 0.0194834 0.0196271 0.0198584 0.0196976 0.0200264 0.0203918 0.0208519 0.02137 0.0221131 0.0229676 0.0242249 0.0253576 0.0262723 0.0261227 0.024869 0.0231521 0.0206693 0.0184293 0.0164407 0.0152678 0.0153145 0.0161147 0.0172355 0.0184141 0.0192705 0.0198845 0.0200091 0.0199382 0.0196418 0.019261 0.0191031 0.0189688 0.0190518 0.0191878 0.0194243 0.0191813 0.0194914 0.0198368 0.0203058 0.0208767 0.0218387 0.0231019 0.0251597 0.0270544 0.0285983 0.0285085 0.0267281 0.0244076 0.0210222 0.0180322 0.0153429 0.0137809 0.0140342 0.015323 0.0170493 0.0186503 0.0196539 0.0202317 0.0201506 0.0198929 0.0193561 0.0188226 0.0186452 0.018469 0.0185619 0.018691 0.0189235 0.0186448 0.0189157 0.0192129 0.0196595 0.0202776 0.0215039 0.0233093 0.0263194 0.0287784 0.0302678 0.0284804 0.0253795 0.0238642 0.021039 0.0188835 0.0158597 0.0129303 0.0128036 0.0142398 0.0165388 0.018599 0.0198441 0.0202842 0.0198201 0.0193769 0.0185392 0.0179151 0.0178772 0.0177853 0.0179838 0.0181579 0.0184054 0.0180653 0.0182704 0.0184951 0.0188848 0.019512 0.0209056 0.0230192 0.0263048 0.0275557 0.0270843 0.0242642 0.0212052 0.0212459 0.0202783 0.0199322 0.0177636 0.0146204 0.0136095 0.0140216 0.0162958 0.0185076 0.0198941 0.0200074 0.0196015 0.0190199 0.0172696 0.0166552 0.0169586 0.0170648 0.0174026 0.0176245 0.0178651 0.0175623 0.0176676 0.0177707 0.0179975 0.0184711 0.0196415 0.0215035 0.0238071 0.0236184 0.0212466 0.0218187 0.021897 0.0203763 0.0200695 0.0185387 0.0175179 0.0177158 0.016669 0.0158146 0.0169309 0.0188594 0.0209407 0.0206139 0.0200583 0.0199765 0.0168622 0.0155483 0.0160688 0.0163807 0.0168838 0.0171791 0.0174131 0.0170932 0.017055 0.0169964 0.0169669 0.0171047 0.0175544 0.0185114 0.0185564 0.019045 0.0178674 0.0172683 0.0179915 0.0180787 0.0198999 0.0203377 0.0208442 0.0196024 0.0195558 0.0203158 0.0194003 0.0199339 0.0213379 0.0200915 0.0149247 0.0147212 0.0154731 0.015009 0.0160809 0.0163102 0.0167093 0.0169287 0.01705 0.0168197 0.0165923 0.016286 0.0157943 0.0151271 0.0139881 0.0123011 0.00960026 0.00884517 0.0084011 0.00934852 0.0125391 0.0159721 0.0203484 0.0240034 0.0271328 0.027577 0.026067 0.0251303 0.0232475 0.0208026 0.0209503 0.0182882 0.0126773 0.0114035 0.0125323 0.014562 0.016427 0.0166917 0.0168528 0.016955 0.0169156 0.0165859 0.0161658 0.0155933 0.0146154 0.0130467 0.0102665 0.00606126 0.00178035 0.000639548 0.00194256 0.0059977 0.0110583 0.0156852 0.0206036 0.0253169 0.0298371 0.0334448 0.0327125 0.0315736 0.0285929 0.0219099 0.0163637 0.012134 0.00925671 0.00953611 0.011993 0.0141195 0.0163476 0.0168535 0.0169935 0.0170215 0.0168314 0.0166846 0.0161238 0.0153935 0.0141283 0.0120307 0.00823115 0.00262471 -0.00265633 -0.00329698 0.000114475 0.00558634 0.011169 0.0160751 0.0209767 0.0259097 0.0309514 0.0361875 0.037162 0.0357985 0.0321027 0.0251091 0.0177115 0.0132828 0.0116567 0.0160649 0.022646 0.021095 0.0189878 0.0184879 0.0178858 0.017536 0.0170993 0.0168382 0.016212 0.0154389 0.0141684 0.0121204 0.00850477 0.00313427 -0.0016484 -0.00242392 0.000733297 0.00626298 0.0117141 0.0166512 0.0215723 0.0264474 0.0314279 0.0365173 0.0374668 0.034509 0.0318319 0.0284447 0.024349 0.0236152 0.0267967 0.0245861 0.0227257 0.0223344 0.0197769 0.0192757 0.0184753 0.0179323 0.0173607 0.0172797 0.0167413 0.0162005 0.0153924 0.014393 0.0125635 0.0101104 0.00793622 0.00533982 0.0049458 0.00868981 0.0129732 0.0176099 0.0226905 0.0274373 0.0319399 0.0355893 0.0336563 0.0297726 0.0291546 0.0279155 0.0263477 0.0267502 0.029901 0.0270486 0.0231551 0.0225904 0.0208496 0.0200811 0.0191376 0.0184287 0.0178038 0.0177286 0.0172935 0.0169543 0.0165867 0.0164901 0.0163213 0.016558 0.015683 0.0136352 0.0125886 0.0131784 0.0150238 0.0188624 0.0240089 0.0282648 0.0319673 0.0325312 0.0300702 0.0292941 0.028687 0.027222 0.0267196 0.0270793 0.0283295 0.0267733 0.024484 0.0233047 0.0217146 0.0206414 0.0196267 0.018841 0.018222 0.0182711 0.0179811 0.0178427 0.0178179 0.0183205 0.0190753 0.0210158 0.020248 0.0203719 0.0223039 0.0212007 0.01922 0.0201015 0.0240594 0.0261704 0.0285915 0.026808 0.028196 0.0296768 0.0258214 0.0256687 0.0258123 0.0265111 0.0272444 0.0265343 0.0249494 0.0235493 0.0220637 0.0208744 0.0199167 0.0191864 0.0186627 0.0187712 0.0186025 0.0185703 0.0187294 0.0193821 0.0206428 0.0230034 0.0243016 0.0237532 0.021779 0.0216736 0.0208338 0.0199721 0.0216149 0.0216561 0.0223546 0.0235387 0.0245802 0.0238515 0.0224874 0.023621 0.0244075 0.0250922 0.0258378 0.0262842 0.0252577 0.0234577 0.0220095 0.0208287 0.0200143 0.0194286 0.0190448 0.0192669 0.0192208 0.0192688 0.0194994 0.0200952 0.0213083 0.0234227 0.0257892 0.0261094 0.0237118 0.0215028 0.0220669 0.0219347 0.0198154 0.0189747 0.0163725 0.0157962 0.0176364 0.0182324 0.0198056 0.0217299 0.0227607 0.0228883 0.0237734 0.0256071 0.0250146 0.0227957 0.0214338 0.0204896 0.0199228 0.0195826 0.0193881 0.0197102 0.019775 0.0198758 0.0201112 0.0205629 0.0214875 0.0230185 0.0251374 0.0265642 0.0260508 0.0237156 0.022718 0.0211656 0.0173136 0.0151431 0.0126535 0.012089 0.0145134 0.0166866 0.0186973 0.0200395 0.0192038 0.016818 0.019177 0.0255341 0.0259889 0.0219498 0.0202771 0.0197499 0.0195688 0.0196056 0.0196535 0.0201334 0.0202887 0.0204279 0.0206459 0.0209586 0.0215609 0.0224416 0.0237787 0.0248409 0.0250852 0.0239115 0.0221303 0.019697 0.016234 0.013974 0.0125059 0.0126879 0.014517 0.0163579 0.0176427 0.0182406 0.0161771 0.0133759 0.0160379 0.021897 0.0241916 0.0207735 0.0187328 0.0189318 0.0191833 0.0196312 0.0199159 0.0205256 0.0207468 0.0209107 0.0211043 0.0213236 0.0216993 0.0221588 0.0228342 0.0233515 0.0234249 0.0225851 0.0211484 0.0192101 0.0166677 0.0149892 0.0140479 0.0142481 0.0155519 0.0171065 0.0186051 0.0205536 0.0222603 0.0234923 0.0211177 0.0141241 0.0146163 0.0158348 0.0156139 0.0177969 0.0186832 0.0196459 0.0201605 0.020951 0.0211724 0.0213174 0.02147 0.0216142 0.0218335 0.0220348 0.0222964 0.0223962 0.0222368 0.0215711 0.0204089 0.0189235 0.0171487 0.015877 0.0151404 0.0151025 0.0157371 0.0168093 0.0178526 0.0214973 0.0234382 0.0223486 0.0186466 0.0106788 0.00709696 0.00961338 0.013982 0.0171107 0.0188198 0.0199484 0.0205751 0.0213834 0.0215419 0.0216409 0.021744 0.0218283 0.0219429 0.0220028 0.02204 0.0219146 0.0215801 0.0209291 0.0199611 0.01881 0.0174979 0.0164692 0.0157691 0.0154456 0.0155759 0.0158115 0.0163406 0.0176194 0.0179029 0.0172278 0.016056 0.0135663 0.0111244 0.0138454 0.0176799 0.0187076 0.0200173 0.0206764 0.0211328 0.0218238 0.0218604 0.021882 0.0219252 0.0219546 0.0219919 0.0219645 0.0218786 0.0216422 0.0212279 0.0205947 0.0197295 0.0187415 0.0176566 0.0167131 0.0159632 0.0153822 0.0150923 0.0145291 0.0144208 0.0117536 0.0119227 0.0152614 0.0165228 0.0176409 0.0177973 0.0200566 0.0213933 0.0211602 0.0215809 0.021668 0.0217921 0.0220663 0.0220317 0.022011 0.0220185 0.0220143 0.0220025 0.0219246 0.0217735 0.0214867 0.0210438 0.0204315 0.0196454 0.0187702 0.0178276 0.0169648 0.0162269 0.0156121 0.0152447 0.0148003 0.0149686 0.0139336 0.0151516 0.0177665 0.0192227 0.0209076 0.0220885 0.0235646 0.0232487 0.0226584 0.0225054 0.0222576 0.022162 0.02218 0.0221016 0.0220571 0.0220457 0.0220253 0.0219881 0.0218856 0.0217039 0.0213997 0.0209564 0.0203724 0.0196464 0.0188442 0.0179864 0.0171753 0.0164422 0.0158189 0.0153783 0.0150176 0.0151403 0.0151771 0.0162402 0.0176551 0.0180253 0.0192092 0.021469 0.0230995 0.0232828 0.0231334 0.0228725 0.0225504 0.0223412 0.022134 0.0220654 0.0220346 0.022032 0.0220179 0.0219786 0.0218732 0.0216857 0.0213834 0.0209538 0.0203987 0.0197222 0.0189779 0.0181868 0.0174318 0.0167351 0.016155 0.015723 0.0154539 0.0155297 0.015822 0.0166987 0.0182076 0.0189367 0.0193875 0.0214071 0.0232024 0.0234035 0.0232129 0.0228583 0.0225145 0.0222878 0.0219866 0.0219611 0.0219672 0.0219939 0.0220051 0.0219846 0.0218959 0.0217223 0.0214355 0.021026 0.0204954 0.0198524 0.019143 0.0183918 0.0176737 0.0170081 0.0164709 0.0160656 0.0158721 0.0159351 0.0163204 0.0170944 0.018406 0.0195586 0.0203825 0.0217048 0.0226743 0.0228196 0.0227131 0.0224694 0.022236 0.0220811 0.021787 0.0218237 0.0218833 0.0219552 0.0220072 0.022023 0.0219673 0.0218238 0.0215626 0.0211767 0.0206635 0.0200365 0.0193385 0.0186008 0.0178987 0.0172561 0.0167579 0.0163956 0.0162662 0.0163453 0.0167435 0.0174114 0.0184675 0.0195242 0.020272 0.0212398 0.0219287 0.0221025 0.0220939 0.0219776 0.0218632 0.0218026 0.0215623 0.0216665 0.021787 0.0219151 0.022021 0.0220896 0.0220832 0.0219865 0.0217619 0.0214037 0.0209005 0.0202702 0.0195564 0.0187991 0.0180809 0.0174363 0.0169569 0.0166329 0.0165555 0.0166643 0.0170563 0.0176374 0.0184571 0.0193219 0.0200054 0.0207143 0.0211849 0.0213889 0.0214611 0.0214659 0.0214635 0.0214975 
        </DataArray>
        <DataArray Name="vy" NumberOfComponents="1" type="Float32" format="ascii">
0.010922 0.0108027 0.010746 0.0107567 0.0108529 0.0110336 0.0113196 0.0116811 0.012139 0.0126108 0.0131117 0.0135136 0.013835 0.0139793 0.0139897 0.0138421 0.013632 0.0133832 0.0132239 0.0131381 0.0131934 0.0132881 0.0134025 0.0133731 0.0132541 0.0130471 0.0126624 0.0122833 0.0119084 0.0115836 0.0113137 0.011091 0.010741 0.0105973 0.0105286 0.0105414 0.010664 0.0108928 0.0112673 0.0117403 0.0123614 0.0129993 0.0136955 0.0142413 0.0146656 0.0148203 0.0147539 0.0144481 0.0140174 0.0135243 0.0131307 0.0128367 0.01273 0.0127179 0.0127885 0.0128158 0.0127756 0.0126753 0.0124144 0.0121245 0.011794 0.0114783 0.0111908 0.0109398 0.0105041 0.0103345 0.0102499 0.0102574 0.0103975 0.0106631 0.011122 0.0117056 0.0125151 0.013349 0.014302 0.0150234 0.0155862 0.0157655 0.0156098 0.0151218 0.0144152 0.0136308 0.0129746 0.012479 0.0122431 0.0121858 0.0122688 0.0123872 0.0124323 0.0124235 0.0122328 0.0119878 0.0116635 0.0113345 0.0110177 0.0107341 0.0102354 0.010029 0.00991491 0.00989841 0.0100334 0.0103085 0.0108282 0.0115011 0.0125163 0.0135871 0.0149024 0.0159138 0.0167105 0.016955 0.0166805 0.0159323 0.0148351 0.0136687 0.0126973 0.0119938 0.0116611 0.0116156 0.0117744 0.012038 0.0121965 0.0123011 0.0121498 0.0119208 0.0115673 0.0111994 0.0108349 0.0105063 0.00993481 0.00968837 0.00953576 0.00947842 0.00958013 0.00982398 0.0103566 0.0110744 0.0123156 0.0136917 0.0155414 0.0168912 0.0180033 0.0183624 0.0179461 0.0169311 0.0153031 0.013638 0.0122836 0.0113631 0.0109799 0.0110077 0.0113398 0.0118026 0.0121223 0.0123485 0.0121967 0.011937 0.0115053 0.0110645 0.0106323 0.0102501 0.00963666 0.00933882 0.00912875 0.0089998 0.009014 0.00914011 0.00955861 0.0101858 0.0116178 0.0133807 0.0160748 0.0181973 0.0199306 0.0205106 0.0198381 0.018252 0.0157431 0.0133447 0.011515 0.0104075 0.0100838 0.0102931 0.0109138 0.0116501 0.0122039 0.0125639 0.0123806 0.0120552 0.0115105 0.0109688 0.0104522 0.010005 0.0093316 0.00898912 0.00871479 0.00848735 0.00833474 0.0082047 0.00828305 0.00865804 0.0103424 0.0129071 0.0170394 0.0197851 0.0221548 0.0230465 0.0220689 0.0201526 0.0163894 0.012855 0.010354 0.00907218 0.0089657 0.00951052 0.0106543 0.0117065 0.0125386 0.0130207 0.012728 0.0122603 0.0115435 0.0108655 0.0102536 0.00974449 0.00906695 0.00867998 0.00832328 0.00794925 0.00750216 0.00689022 0.00627523 0.00618129 0.00823498 0.0117994 0.0179007 0.0222744 0.0257312 0.0270049 0.0255206 0.0225391 0.016896 0.011921 0.00847068 0.007091 0.00750535 0.00864341 0.0104966 0.0117645 0.0131819 0.013591 0.0130816 0.0124215 0.011553 0.0107533 0.0100716 0.00951521 0.00882229 0.00841643 0.00797403 0.0074048 0.00649807 0.00514106 0.00348167 0.00316139 0.0064337 0.0132895 0.0222485 0.0242528 0.0263587 0.0279977 0.0269087 0.0263448 0.0193883 0.0116515 0.0065089 0.00469108 0.00570715 0.00776047 0.01091 0.0124241 0.0140261 0.0143092 0.0133751 0.0124209 0.0114166 0.0105305 0.00982879 0.00926973 0.00865485 0.00824558 0.00771578 0.00692839 0.00550111 0.00339053 0.000909734 0.00169903 0.00769079 0.0148059 0.0232572 0.0252384 0.0268475 0.0286511 0.0280843 0.0277727 0.0203241 0.0133027 0.00580587 0.00269036 0.00392363 0.00689448 0.01107 0.0115292 0.0166642 0.0158324 0.0134958 0.0120678 0.0110557 0.0102043 0.00957801 0.00907026 0.00857261 0.00820855 0.00764123 0.00668915 0.00482665 0.00207183 -0.000831915 0.00102712 0.00833686 0.0154169 0.02212 0.0261016 0.0281286 0.0296653 0.0296279 0.0278127 0.0203061 0.0131822 0.00561647 0.00160463 0.00183007 0.00613053 0.0126389 0.0126813 0.0178532 0.0175606 0.0139902 0.0115253 0.0105263 0.00976957 0.00929673 0.00890477 0.00864104 0.00833876 0.00780073 0.00683046 0.00489876 0.0020747 -0.000333633 0.00190909 0.00840468 0.0168675 0.0224862 0.0241661 0.024947 0.0262204 0.0271981 0.0276562 0.0218903 0.0129688 0.00649934 0.00289431 0.00147101 0.00616228 0.0172495 0.017082 0.0156185 0.0165994 0.0130771 0.0111845 0.0104064 0.00965443 0.00921731 0.00890344 0.00890327 0.00875261 0.00844101 0.00785579 0.00662311 0.00486506 0.00354189 0.00439777 0.00919584 0.0149594 0.0183746 0.0195695 0.0203313 0.0215529 0.0229452 0.0242777 0.0215709 0.0148771 0.00812473 0.00679485 0.00511369 0.00869155 0.0206298 0.0205321 0.0168967 0.01556 0.00863501 0.00938685 0.00983932 0.0094951 0.00921341 0.00904686 0.00930524 0.00932653 0.00934208 0.00937179 0.00927293 0.00901304 0.00845282 0.00699107 0.00873053 0.0111867 0.0133275 0.014437 0.015419 0.0166004 0.0180393 0.0195136 0.0192962 0.0154669 0.010038 0.0127307 0.0127597 0.0158825 0.0245103 0.0206277 0.00986982 0.0131798 0.00853094 0.00942716 0.00984784 0.00962818 0.00941394 0.00934534 0.00988634 0.0100639 0.010454 0.0112559 0.0125653 0.0142824 0.014485 0.00982828 0.00685711 0.00585361 0.00739763 0.00903591 0.0104631 0.0116749 0.0129197 0.013971 0.0152738 0.0151776 0.0130657 0.017496 0.0190086 0.0209321 0.0252079 0.0194049 0.00669319 0.0117202 0.0115539 0.0114296 0.0107671 0.010304 0.00997934 0.00988222 0.0104468 0.0107146 0.0113586 0.0126626 0.0149177 0.0179289 0.0186332 0.0120417 0.00691087 0.00223908 0.00255207 0.00408743 0.00562196 0.00687861 0.00824074 0.0094575 0.0132803 0.0172199 0.0161792 0.0184304 0.0207419 0.0215233 0.022215 0.0190986 0.013074 0.0140503 0.012664 0.012328 0.0114578 0.0109605 0.0105809 0.0104324 0.010959 0.0111739 0.0118238 0.0131233 0.0154706 0.0185471 0.019574 0.0139237 0.0107305 0.00197194 -0.000585957 -3.84615e-05 0.000609326 0.00175489 0.00359891 0.00564708 0.0134933 0.0214974 0.0171469 0.0190025 0.021822 0.0219936 0.0214128 0.0189806 0.0150675 0.0155385 0.0142558 0.0135617 0.0125533 0.0118639 0.0113269 0.0110288 0.0113606 0.011481 0.0120294 0.0131113 0.0151457 0.0177949 0.0194657 0.0147889 0.00994432 0.00189332 0.00078833 -0.00151947 -0.00323632 -0.00243208 0.000466554 0.00517364 0.015156 0.0201863 0.0176458 0.0211703 0.022562 0.0217793 0.0206925 0.0189856 0.0169607 0.0170015 0.0157985 0.0148309 0.0136725 0.0127315 0.0120042 0.0115373 0.0116422 0.0116254 0.0119805 0.0126999 0.0141384 0.0159822 0.0178757 0.01518 0.00892083 0.00175466 0.0022252 0.000848513 -0.00450403 -0.00439352 -0.000751889 0.00391492 0.0148791 0.0182766 0.0199327 0.0223733 0.0219141 0.0209867 0.0201228 0.0188276 0.0178848 0.0182905 0.0173561 0.0161035 0.0147482 0.013517 0.0125874 0.0119464 0.0117955 0.0116798 0.0118729 0.0123031 0.0131582 0.0142522 0.0155415 0.0146728 0.0110681 0.00434495 0.00148831 0.000793308 -0.00432932 -0.004048 -6.93117e-05 0.00386077 0.013562 0.018849 0.0203106 0.0212936 0.020721 0.0202775 0.0192962 0.017482 0.0175202 0.0196271 0.0191446 0.0174019 0.015723 0.0141284 0.0129887 0.0121966 0.0118041 0.0116303 0.011697 0.0119029 0.0122987 0.012746 0.0132534 0.0128001 0.0107582 0.0069435 0.00325118 0.000650448 -0.00205157 -0.00127301 0.00245044 0.00683793 0.0129082 0.0161635 0.017821 0.018827 0.0189739 0.0196699 0.0193429 0.016162 0.0170001 0.021058 0.021054 0.0183394 0.016267 0.0143854 0.013112 0.0122502 0.0116835 0.011516 0.0115278 0.0116182 0.011751 0.0118301 0.0117982 0.0112854 0.00989085 0.00745646 0.00482524 0.00305177 0.00124358 0.00187984 0.00451211 0.00750982 0.0116276 0.0142513 0.0161287 0.0179946 0.0202517 0.0236989 0.019565 0.00802917 0.0105696 0.022933 0.0249474 0.0195221 0.0165197 0.0142719 0.0129436 0.0121007 0.0114227 0.0113283 0.0113375 0.0113775 0.0113775 0.0112866 0.0110056 0.0104658 0.00939217 0.0079433 0.00614392 0.00485416 0.00388746 0.00436849 0.00606522 0.00811509 0.0106834 0.0126126 0.0145844 0.0170118 0.0203288 0.0239594 0.0193072 0.00802019 0.00952654 0.0220137 0.0269872 0.0200479 0.0158795 0.0136285 0.0123727 0.0117206 0.0111149 0.011133 0.0111747 0.0112049 0.0111535 0.0110037 0.0106523 0.0101309 0.00927047 0.00827493 0.00711711 0.00634762 0.00578461 0.00609455 0.0071252 0.0084122 0.0100636 0.0114519 0.0130119 0.0145101 0.0165745 0.021569 0.020883 0.0172792 0.0167598 0.0211027 0.0240007 0.0170505 0.0135696 0.0123319 0.0115095 0.0112171 0.0108215 0.0109529 0.0110389 0.011077 0.0110159 0.0108655 0.0105401 0.0101062 0.00944465 0.00876035 0.00797866 0.00747375 0.00716487 0.00738272 0.00803498 0.00890576 0.00999848 0.0110195 0.0122231 0.0127497 0.0137613 0.0236827 0.0231689 0.0203904 0.0207777 0.0230762 0.0198799 0.0131746 0.0111649 0.0108581 0.0106413 0.0107099 0.0107073 0.0108789 0.0109784 0.0110164 0.0109592 0.0108282 0.0105609 0.0102237 0.00973803 0.00926427 0.00875237 0.00844268 0.00827376 0.00843565 0.00886946 0.00948866 0.0102846 0.0112004 0.0123492 0.013501 0.0147266 0.0226008 0.0220079 0.0209292 0.0215815 0.0216822 0.0167028 0.0121874 0.0106686 0.0103303 0.0103197 0.0105096 0.0107457 0.0108904 0.0109724 0.0110003 0.0109525 0.010852 0.0106573 0.0104231 0.0100984 0.00979675 0.00948355 0.00930839 0.0092425 0.00938827 0.00971361 0.0102018 0.0108371 0.01172 0.0128465 0.0146764 0.0162434 0.0198755 0.0191169 0.0181008 0.0198978 0.0202442 0.016203 0.0126763 0.0111738 0.010513 0.0104415 0.0105729 0.0108408 0.0109415 0.0109966 0.0110131 0.0109792 0.0109152 0.010795 0.0106589 0.0104748 0.0103159 0.0101607 0.010096 0.0101051 0.0102415 0.0104901 0.0108547 0.0113274 0.0120182 0.0128738 0.014321 0.0155349 0.0181869 0.0182476 0.0171144 0.0186606 0.0188233 0.01583 0.0127108 0.0113394 0.010716 0.0106374 0.0107166 0.0109757 0.0110092 0.0110263 0.0110296 0.0110125 0.0109895 0.0109456 0.0109054 0.0108498 0.0108179 0.0107969 0.0108271 0.0109028 0.0110436 0.0112508 0.0115294 0.0118931 0.0124256 0.0131055 0.0142005 0.0152364 0.0169394 0.0174507 0.0169055 0.0168466 0.016388 0.0143932 0.0125885 0.0116108 0.0111075 0.0109613 0.0109417 0.0110661 0.0110449 0.0110324 0.0110294 0.0110346 0.0110573 0.0110906 0.0111454 0.0112106 0.0112972 0.0113968 0.0115134 0.0116462 0.011788 0.0119523 0.0121354 0.0123719 0.0127109 0.0131723 0.0138912 0.0146376 0.0156865 0.016181 0.015867 0.0156249 0.0152363 0.0138487 0.0126483 0.0118711 0.0114129 0.0112051 0.0111059 0.0110918 0.0110272 0.0109933 0.0109911 0.0110242 0.0110976 0.0112114 0.0113635 0.0115498 0.0117544 0.0119731 0.0121747 0.0123633 0.012507 0.0126305 0.01272 0.0128321 0.0129887 0.0132521 0.0136603 0.0141472 0.0147234 0.0150664 0.0149355 0.0146562 0.0142063 0.0133182 0.0125559 0.0119774 0.0115851 0.0113458 0.0111895 0.0110453 0.0109492 0.0109013 0.0109042 0.0109679 0.0110945 0.0112922 0.0115461 0.011861 0.0121919 0.0125404 0.0128351 0.0130843 0.0132278 0.0132997 0.013279 0.013242 0.013202 0.0132548 0.0133946 0.0136438 0.0139203 0.0141262 0.014044 0.0138529 0.0135701 0.0129858 0.0124579 0.0119953 0.0116397 0.0113799 0.0111844 
        </DataArray>
        <DataArray Name="vz" NumberOfComponents="1" type="Float32" format="ascii">
0 0 0 0 0 0 0 0 0 0 0 0 0 0 0 0 0 0 0 0 0 0 0 0 0 0 0 0 0 0 0 0 0 0 0 0 0 0 0 0 0 0 0 0 0 0 0 0 0 0 0 0 0 0 0 0 0 0 0 0 0 0 0 0 0 0 0 0 0 0 0 0 0 0 0 0 0 0 0 0 0 0 0 0 0 0 0 0 0 0 0 0 0 0 0 0 0 0 0 0 0 0 0 0 0 0 0 0 0 0 0 0 0 0 0 0 0 0 0 0 0 0 0 0 0 0 0 0 0 0 0 0 0 0 0 0 0 0 0 0 0 0 0 0 0 0 0 0 0 0 0 0 0 0 0 0 0 0 0 0 0 0 0 0 0 0 0 0 0 0 0 0 0 0 0 0 0 0 0 0 0 0 0 0 0 0 0 0 0 0 0 0 0 0 0 0 0 0 0 0 0 0 0 0 0 0 0 0 0 0 0 0 0 0 0 0 0 0 0 0 0 0 0 0 0 0 0 0 0 0 0 0 0 0 0 0 0 0 0 0 0 0 0 0 0 0 0 0 0 0 0 0 0 0 0 0 0 0 0 0 0 0 0 0 0 0 0 0 0 0 0 0 0 0 0 0 0 0 0 0 0 0 0 0 0 0 0 0 0 0 0 0 0 0 0 0 0 0 0 0 0 0 0 0 0 0 0 0 0 0 0 0 0 0 0 0 0 0 0 0 0 0 0 0 0 0 0 0 0 0 0 0 0 0 0 0 0 0 0 0 0 0 0 0 0 0 0 0 0 0 0 0 0 0 0 0 0 0 0 0 0 0 0 0 0 0 0 0 0 0 0 0 0 0 0 0 0 0 0 0 0 0 0 0 0 0 0 0 0 0 0 0 0 0 0 0 0 0 0 0 0 0 0 0 0 0 0 0 0 0 0 0 0 0 0 0 0 0 0 0 0 0 0 0 0 0 0 0 0 0 0 0 0 0 0 0 0 0 0 0 0 0 0 0 0 0 0 0 0 0 0 0 0 0 0 0 0 0 0 0 0 0 0 0 0 0 0 0 0 0 0 0 0 0 0 0 0 0 0 0 0 0 0 0 0 0 0 0 0 0 0 0 0 0 0 0 0 0 0 0 0 0 0 0 0 0 0 0 0 0 0 0 0 0 0 0 0 0 0 0 0 0 0 0 0 0 0 0 0 0 0 0 0 0 0 0 0 0 0 0 0 0 0 0 0 0 0 0 0 0 0 0 0 0 0 0 0 0 0 0 0 0 0 0 0 0 0 0 0 0 0 0 0 0 0 0 0 0 0 0 0 0 0 0 0 0 0 0 0 0 0 0 0 0 0 0 0 0 0 0 0 0 0 0 0 0 0 0 0 0 0 0 0 0 0 0 0 0 0 0 0 0 0 0 0 0 0 0 0 0 0 0 0 0 0 0 0 0 0 0 0 0 0 0 0 0 0 0 0 0 0 0 0 0 0 0 0 0 0 0 0 0 0 0 0 0 0 0 0 0 0 0 0 0 0 0 0 0 0 0 0 0 0 0 0 0 0 0 0 0 0 0 0 0 0 0 0 0 0 0 0 0 0 0 0 0 0 0 0 0 0 0 0 0 0 0 0 0 0 0 0 0 0 0 0 0 0 0 0 0 0 0 0 0 0 0 0 0 0 0 0 0 0 0 0 0 0 0 0 0 0 0 0 0 0 0 0 0 0 0 0 0 0 0 0 0 0 0 0 0 0 0 0 0 0 0 0 0 0 0 0 0 0 0 0 0 0 0 0 0 0 0 0 0 0 0 0 0 0 0 0 0 0 0 0 0 0 0 0 0 0 0 0 0 0 0 0 0 0 0 0 0 0 0 0 0 0 0 0 0 0 0 0 0 0 0 0 0 0 0 0 0 0 0 0 0 0 0 0 0 0 0 0 0 0 0 0 0 0 0 0 0 0 0 0 0 0 0 0 0 0 0 0 0 0 0 0 0 0 0 0 0 0 0 0 0 0 0 0 0 0 0 0 0 0 0 0 0 0 0 0 0 0 0 0 0 0 0 0 0 0 0 0 0 0 0 0 0 0 0 0 0 0 0 0 0 0 0 0 0 0 0 0 0 0 0 0 0 0 0 0 0 0 0 0 0 0 0 0 0 0 0 0 0 0 0 0 0 0 0 0 0 0 0 0 0 0 0 0 0 0 0 0 0 0 0 0 0 0 0 0 0 0 0 0 0 0 0 0 0 0 0 0 0 0 0 0 0 0 0 0 0 0 0 0 0 0 0 0 0 0 0 0 0 0 0 0 0 0 0 0 0 0 0 
        </DataArray>
        <DataArray Name="p" NumberOfComponents="1" type="Float32" format="ascii">