<?xml version="1.0"?>
<VTKFile type="StructuredGrid" version="0.1" byte_order="LittleEndian">
  <StructuredGrid WholeExtent="0 32 0 32 0 1">
    <Piece Extent="0 32 0 32 0 1">
      <PointData>
      </PointData>
      <CellData>
        <DataArray Name="vx" NumberOfComponents="1" type="Float32" format="ascii">
0.0301423 0.0322939 0.0345772 0.0363992 0.0374059 0.036903 0.0338154 0.0277188 0.0199558 0.012404 0.00670423 0.00387229 0.00363502 0.00493317 0.00687842 0.00927299 0.0112418 0.0131117 0.0143318 0.0152495 0.0158234 0.0164288 0.0170918 0.0177691 0.0186384 0.0195131 0.0205717 0.0216955 0.023008 0.0244552 0.0261499 0.0279927 0.0308563 0.0337526 0.0371944 0.0403926 0.0428614 0.0435306 0.0402163 0.031626 0.0196615 0.00812026 0.000305174 -0.0026185 -0.00172919 0.00106345 0.00434955 0.00790816 0.0106311 0.0130772 0.0145972 0.0155625 0.0160304 0.0166235 0.017242 0.0178419 0.0186336 0.0193971 0.0203627 0.0214065 0.0226914 0.0241715 0.0260289 0.0281525 0.0312174 0.0349821 0.039971 0.0452736 0.0502615 0.0538507 0.0504153 0.0374261 0.0191614 0.00206256 -0.00976356 -0.0129709 -0.00915999 -0.00377502 0.00170125 0.00687765 0.0105659 0.0136689 0.0154336 0.0161933 0.0163429 0.0168528 0.0173589 0.0178578 0.0185584 0.0191793 0.0200233 0.0209374 0.0221434 0.0235901 0.0255591 0.0279176 0.0308869 0.0355727 0.0426143 0.0509578 0.0604094 0.0690922 0.0680925 0.0501012 0.0173871 -0.0126023 -0.0273875 -0.0276791 -0.0189605 -0.0090528 -0.000511568 0.00669604 0.0114813 0.0152428 0.0173443 0.017338 0.0165136 0.0169764 0.0173898 0.0178021 0.018403 0.0188373 0.0195082 0.0202182 0.0212625 0.0225677 0.0245421 0.0270156 0.0291715 0.0344469 0.0435958 0.0559175 0.0721927 0.0946477 0.0961208 0.0644231 0.0147764 -0.0294078 -0.0551635 -0.0535656 -0.0313452 -0.0141717 -0.00129189 0.00817683 0.0139923 0.0183999 0.0205512 0.0188415 0.0166125 0.0170268 0.0173012 0.0176989 0.0181877 0.0184015 0.018839 0.0192535 0.0200129 0.021002 0.0227572 0.0250467 0.0256497 0.0308225 0.0417061 0.0570707 0.0790676 0.106119 0.0874883 0.039386 0.0230683 0.00429556 -0.0470077 -0.0640245 -0.0369301 -0.0143491 0.00178739 0.0125366 0.0188735 0.0238337 0.0274686 0.0211354 0.0144856 0.0164709 0.0171398 0.0176915 0.0180363 0.017941 0.018032 0.0180369 0.0183633 0.0188366 0.0200846 0.0217883 0.0189731 0.021548 0.0302735 0.0352607 0.044443 0.0243933 -0.00271048 0.00317186 0.023493 0.0454068 0.0359108 0.01051 -0.00180359 0.0061005 0.0133131 0.0217373 0.0266867 0.032785 0.0356845 0.0240104 0.0147309 0.0170737 0.0171829 0.0177833 0.0179242 0.0174736 0.017136 0.0166206 0.016337 0.0160215 0.0162967 0.016662 0.010043 0.00832415 0.00798353 -0.00859085 -0.019964 -0.0303397 -0.0380465 -0.00404126 0.0258343 0.0573888 0.0890816 0.0967314 0.0794497 0.0555742 0.0386423 0.0353525 0.0338617 0.0373661 0.030269 0.0276964 0.0305162 0.0248759 0.0229497 0.0198168 0.0185946 0.0172621 0.0162618 0.0151467 0.01416 0.0129568 0.0119547 0.0106107 -0.00100197 -0.0088742 -0.019993 -0.049997 -0.0602858 -0.0522784 -0.042248 -0.00680672 0.0238567 0.0528566 0.0920221 0.0999515 0.100581 0.0904818 0.0596703 0.0448375 0.034225 0.0220642 0.0118317 0.0197905 0.0299548 0.0296559 0.026838 0.0218936 0.0192446 0.0170907 0.0154179 0.0136597 0.0118873 0.00962871 0.00704378 0.00340685 -0.00741641 -0.0148291 -0.0268006 -0.0298137 -0.045804 -0.0571788 -0.036528 -0.00788758 0.0223359 0.0496336 0.0806755 0.0951771 0.0846302 0.0737034 0.0646657 0.0483109 0.0346462 0.0170854 0.00636363 0.0131609 0.0226762 0.0240542 0.0224896 0.0203969 0.01805 0.0161768 0.0143632 0.0123669 0.0101513 0.00732619 0.00372107 -0.000758517 -0.0137037 -0.0220499 -0.0364894 -0.0320879 -0.0561501 -0.0689462 -0.0376181 -0.011101 0.020523 0.0485956 0.0767589 0.101205 0.0884449 0.069569 0.0685216 0.0565383 0.0451204 0.0351887 0.0264659 0.0221084 0.0231483 0.0212385 0.0192776 0.0185029 0.0168005 0.0151907 0.0134003 0.0112348 0.00866415 0.00529515 0.00074155 -0.00482709 -0.0156961 -0.0240602 -0.0457567 -0.0473074 -0.0690065 -0.0745345 -0.0386916 -0.0122668 0.0199471 0.0483025 0.0761384 0.103311 0.0912245 0.0722524 0.0712302 0.059047 0.0518274 0.0451219 0.0418975 0.0373813 0.0289301 0.0221006 0.0190229 0.0177211 0.0160577 0.0146141 0.0129634 0.0109045 0.00838082 0.00503574 0.000257089 -0.00540267 -0.0144765 -0.0243989 -0.0419708 -0.0454991 -0.0643587 -0.0700766 -0.0395526 -0.0113481 0.0202505 0.0491952 0.0761084 0.0975924 0.0844619 0.0699795 0.0716123 0.0616453 0.0550924 0.0482135 0.0455118 0.0398499 0.028925 0.0216805 0.0178846 0.0164278 0.0150383 0.0139572 0.012642 0.010812 0.00849935 0.00522595 0.000694192 -0.00512052 -0.00695072 -0.0144841 -0.028475 -0.0328382 -0.0456073 -0.0565262 -0.0385375 -0.00841709 0.0219511 0.0507554 0.0804139 0.0924251 0.0790406 0.0694582 0.067651 0.0573209 0.0526641 0.0475038 0.0434428 0.0363931 0.0263053 0.0197262 0.016063 0.015061 0.0142671 0.0137916 0.013015 0.0117119 0.0100209 0.00747521 0.00410709 -0.00029597 0.00101332 -0.00538629 -0.0142746 -0.0415371 -0.0511335 -0.0481029 -0.0438967 -0.00687877 0.0245452 0.0576952 0.096021 0.1017 0.101259 0.0903655 0.0644539 0.0551689 0.0526853 0.0481179 0.0395385 0.0322255 0.0246392 0.0163681 0.0119533 0.0122226 0.0126634 0.0134169 0.0134613 0.0128653 0.0118621 0.0100692 0.00791505 0.00474359 0.0118297 0.0109769 0.0117413 -0.000427661 -0.0167322 -0.0339716 -0.0398054 -0.00643933 0.0249191 0.0622075 0.08297 0.0758837 0.0594522 0.0481537 0.038399 0.0408089 0.0464029 0.0471071 0.0409741 0.0305447 0.0170652 0.00935059 0.00736305 0.00997577 0.0121097 0.0140851 0.0147996 0.0148766 0.0145767 0.0137662 0.0130791 0.0120278 0.020888 0.0240528 0.0336186 0.04174 0.0544578 0.0461554 0.0141672 0.00565641 0.0223288 0.0423418 0.0134236 -0.0179279 -0.0107584 0.00360105 0.01769 0.0310581 0.0429214 0.0311309 0.0173762 0.0219144 0.0272229 0.0212186 0.00629812 0.00715301 0.0107645 0.0147017 0.0163539 0.0171493 0.017395 0.0173449 0.0177861 0.0183204 0.0272152 0.0323698 0.0431206 0.058462 0.0814678 0.108052 0.0991295 0.0498538 0.0193462 -0.0210268 -0.0661162 -0.0619772 -0.0360477 -0.0156954 -0.000921433 0.00667648 0.00448649 -0.0275801 -0.0359253 0.00973973 0.0626316 0.0708893 0.0384635 0.0216818 0.0182705 0.0193884 0.0198729 0.0203189 0.0205043 0.0208428 0.0219084 0.0234801 0.0304232 0.0352391 0.0437215 0.0549192 0.0695287 0.0893661 0.0880575 0.0587193 0.00937411 -0.035738 -0.0547352 -0.050496 -0.0333897 -0.0210224 -0.0118646 -0.00270523 0.00377453 0.0327494 0.0634161 0.0539465 0.0297031 0.0340627 0.041783 0.033561 0.0269503 0.0249706 0.0239022 0.0235475 0.0233388 0.0236899 0.0248798 0.0267273 0.0320186 0.0360671 0.0423246 0.0495011 0.0574969 0.0640492 0.0598088 0.0428089 0.0105796 -0.0176596 -0.0301625 -0.0324614 -0.0274299 -0.0264839 -0.0268026 -0.0403142 -0.038202 -0.011809 0.013976 0.021777 0.0132858 0.0223124 0.0440063 0.0523335 0.0407956 0.0347498 0.0293105 0.0270788 0.0259083 0.0259737 0.0269927 0.028777 0.0321107 0.0351738 0.0393555 0.043651 0.0473905 0.0497569 0.0447503 0.0317541 0.0130104 -0.00423296 -0.0152987 -0.0195901 -0.0193557 -0.0202512 -0.0235088 -0.0254544 -0.0281378 -0.0212368 -0.00670665 -0.0111741 -0.00242167 0.0167518 0.0299449 0.0412957 0.0395777 0.0346829 0.0298536 0.027735 0.0267819 0.0269514 0.0279135 0.029512 0.0316498 0.0338803 0.0365973 0.0389453 0.0404546 0.0401529 0.0356327 0.0269349 0.0145729 0.00314851 -0.00474148 -0.0089831 -0.0103264 -0.011847 -0.0143731 -0.0160684 -0.012505 0.0138282 0.0186651 -0.0244736 -0.0458005 -0.0177856 0.0142826 0.0290492 0.0309323 0.0297194 0.0277536 0.0271101 0.0268083 0.0272533 0.0282114 0.0296167 0.0307253 0.0323065 0.0339796 0.0351449 0.0354289 0.034286 0.0304456 0.0240928 0.0159273 0.0082905 0.00247128 -0.000831085 -0.00184237 -0.00196164 -0.00251061 -0.00663091 -0.0208691 -0.0398586 -0.0318454 0.0144581 0.052853 0.0575127 0.0404971 0.0314613 0.0272252 0.0260873 0.0256395 0.0258113 0.0261464 0.026868 0.0278886 0.0291435 0.0298039 0.0309311 0.031937 0.0323895 0.0320581 0.0305629 0.0273828 0.0227437 0.0170578 0.0117416 0.00759569 0.00523988 0.00490323 0.00637403 0.0104159 0.0162322 0.0186707 0.0110794 0.00798911 0.0204199 0.026912 0.0210135 0.0132165 0.013029 0.0171031 0.0204922 0.0226308 0.0240896 0.0251979 0.0262589 0.027383 0.02854 0.0289231 0.0297532 0.0303485 0.0304118 0.0297967 0.0282794 0.0256408 0.0220789 0.017934 0.0140789 0.0110064 0.00928782 0.00908747 0.0104651 0.0139377 0.0194831 0.0267035 0.0295414 0.0248153 0.0181158 0.00849984 0.00250061 0.0056875 0.0106865 0.0156909 0.0190859 0.0214421 0.0230898 0.0244572 0.0256417 0.0268014 0.0278766 0.028261 0.0289198 0.0292891 0.0291557 0.0284314 0.0269768 0.0247307 0.0218676 0.0186504 0.0156674 0.0132505 0.0118798 0.0116472 0.0127224 0.0152457 0.0190408 0.0236214 0.025108 0.020887 0.0175509 0.0120713 0.00661183 0.00816408 0.0114944 0.0153668 0.0182029 0.0205725 0.0223162 0.0238459 0.0251179 0.0263087 0.0273407 0.0278238 0.028408 0.0286817 0.0284784 0.0277389 0.0263674 0.0243687 0.0218877 0.0191612 0.0166228 0.0145319 0.0132895 0.0129132 0.0135773 0.0151346 0.0174356 0.0199309 0.0211256 0.0191868 0.016426 0.0127972 0.0104974 0.0116243 0.0136567 0.0162851 0.018395 0.0204158 0.0220099 0.0235059 0.0247713 0.0259557 0.0269628 0.0276528 0.0282501 0.0285325 0.0283469 0.027644 0.0263356 0.02445 0.022109 0.0195528 0.0171444 0.0151345 0.0138685 0.0133326 0.0136836 0.0146487 0.0161484 0.0175531 0.0183283 0.0173216 0.0160671 0.0142878 0.0130845 0.0137271 0.0149478 0.0168573 0.0185349 0.0203138 0.0218072 0.0232715 0.0245454 0.0257479 0.0267775 0.0277413 0.0284302 0.028815 0.0287249 0.0281006 0.0268279 0.0249255 0.0224899 0.0198035 0.0172279 0.0150674 0.0136451 0.0129449 0.0130686 0.0136891 0.0147634 0.0157367 0.0164348 0.0161942 0.0156676 0.0148838 0.0145772 0.0151652 0.0161182 0.0175668 0.0189315 0.0204556 0.0218193 0.0232104 0.024476 0.0257028 0.0267885 0.0280778 0.0289516 0.029549 0.0296494 0.0291644 0.0279171 0.0258752 0.0231016 0.0199723 0.0169272 0.014405 0.0127456 0.0119329 0.0119872 0.0125275 0.0135202 0.0144136 0.0152151 0.0154044 0.015449 0.0152941 0.0153671 0.015952 0.0167624 0.0179648 0.0191552 0.0205228 0.0218158 0.0231738 0.0244681 0.0257647 0.0269652 0.0286314 0.0297924 0.0307375 0.0311605 0.0309199 0.0297277 0.0274269 0.0240205 0.0200502 0.0161554 0.0129908 0.0109918 0.0101349 0.0102846 0.0109727 0.0121374 0.0131949 0.0142341 0.0148182 0.0152578 0.0155097 0.0158898 0.0165265 0.0172941 0.0183396 0.0194007 0.0206354 0.0218605 0.0231884 0.0245198 0.0259144 0.0272767 0.0293528 0.0309358 0.0324238 0.033386 0.0335934 0.0325847 0.0299276 0.0254753 0.0200477 0.0147084 0.0105683 0.00820113 0.00747101 0.00799701 0.00912161 0.010743 0.0121571 0.0135527 0.0144575 0.0151821 0.0156571 0.0161817 0.0168443 0.0175703 0.0185192 0.0194891 0.0206344 0.0218156 0.0231389 0.0245315 0.0260671 0.027651 
        </DataArray>
        <DataArray Name="vy" NumberOfComponents="1" type="Float32" format="ascii">
0.00504455 0.0061576 0.00786301 0.0109273 0.0148726 0.0201845 0.0258257 0.0304911 0.0319915 0.0301158 0.0253901 0.0198629 0.0145633 0.0106828 0.00762184 0.00591182 0.00478523 0.00438357 0.00430887 0.00452289 0.00468961 0.00489738 0.00513162 0.00529599 0.00540326 0.00541075 0.00531149 0.00513908 0.0049026 0.00469156 0.0045427 0.0046535 0.00258437 0.00357014 0.00527401 0.00896134 0.0141539 0.0217862 0.0311221 0.0384733 0.0409316 0.0377243 0.0305591 0.0212875 0.0137129 0.00854017 0.00499362 0.00336191 0.00259835 0.00268283 0.00315492 0.00378656 0.00410201 0.00431003 0.00452788 0.00457837 0.00461652 0.00449853 0.0042827 0.00395014 0.00352462 0.00308551 0.00265945 0.0024948 -0.000607823 -8.03722e-05 0.00121196 0.00533755 0.0118045 0.022858 0.037507 0.0511633 0.0563243 0.0492162 0.0359584 0.0216294 0.0109308 0.00449556 0.000798506 -0.000369149 -0.00040825 0.000472893 0.00175469 0.00322941 0.00355453 0.00373773 0.00392153 0.00389031 0.00388249 0.0036601 0.00332282 0.00280566 0.00213459 0.00137672 0.000530437 -0.000110317 -0.00460435 -0.00515842 -0.00515262 -0.00154239 0.00565112 0.0209537 0.0486801 0.0691457 0.0763396 0.0662654 0.0470017 0.0202498 0.00504488 -0.00246933 -0.00553319 -0.00550036 -0.00422537 -0.00210759 0.000472255 0.00301312 0.00323449 0.00341819 0.00347686 0.00337913 0.0033215 0.00300913 0.00254371 0.00182464 0.000859805 -0.000306029 -0.00172917 -0.00310871 -0.00919023 -0.0115498 -0.0139628 -0.012204 -0.00557375 0.0151355 0.055145 0.101314 0.124775 0.0915201 0.0501057 0.0125297 -0.00719228 -0.0143465 -0.0147889 -0.0124043 -0.00901483 -0.00519124 -0.000693561 0.00477145 0.00336947 0.00312639 0.00295935 0.00289335 0.00285578 0.00252859 0.00195982 0.0010523 -0.000221354 -0.0018468 -0.0039536 -0.00630536 -0.0143003 -0.0196825 -0.0271032 -0.0309678 -0.0337237 -0.00841356 0.0835613 0.148404 0.167407 0.136616 0.0732286 -0.00696362 -0.0337849 -0.0329544 -0.0276681 -0.0207963 -0.0145571 -0.00847797 -0.00044079 0.00734579 0.00442394 0.00335076 0.00263014 0.00261023 0.0026343 0.00234515 0.00170719 0.000641779 -0.000925598 -0.00303414 -0.00590691 -0.00949401 -0.0180661 -0.027038 -0.0391272 -0.0488744 -0.0486865 0.0061475 0.121538 0.159699 0.15845 0.15745 0.117278 0.00465376 -0.0554634 -0.0541354 -0.0412103 -0.0295479 -0.0202718 -0.0133519 0.000877274 0.0207453 0.00558067 0.00116237 0.00128554 0.00202011 0.00255868 0.00250809 0.0018781 0.00073766 -0.00101134 -0.00346485 -0.00689062 -0.0115929 -0.0198755 -0.0311099 -0.0429896 -0.0444835 -0.029975 0.0398805 0.111481 0.128478 0.127884 0.129202 0.11141 0.0285286 -0.0288207 -0.0463947 -0.0434756 -0.0339172 -0.0261162 -0.0173402 0.00696049 0.0287589 0.00979665 0.00316135 0.00164573 0.00217019 0.00297052 0.00313445 0.00256396 0.00141463 -0.000396889 -0.00303388 -0.00678161 -0.012256 -0.0154533 -0.0239875 -0.0229764 -0.0165649 -0.0315814 0.0333685 0.0885533 0.0939802 0.0951201 0.0913204 0.080661 0.0206404 -0.0194318 -0.014668 -0.0215504 -0.0246311 -0.0210987 -0.0101817 0.0122124 0.0200072 0.00949637 0.00642561 0.00663402 0.00579574 0.00514715 0.00477433 0.0040195 0.00287428 0.00123988 -0.00113566 -0.00438709 -0.0093449 -0.00843488 -0.0127491 -0.00593794 -0.00358425 -0.0288738 0.0262493 0.0638888 0.0637142 0.0661096 0.0614668 0.058997 0.0222431 -0.0198261 -0.00151174 -0.00136289 -0.0084089 -0.00479479 0.00552385 0.00939308 0.008474 0.00278471 0.00534843 0.0103802 0.00950347 0.00791078 0.00691005 0.00598286 0.00489068 0.00355924 0.00166482 -0.00077334 -0.0045871 7.51528e-05 -0.0032671 -0.0035603 0.000945427 -0.00452645 0.0216285 0.0375969 0.0349275 0.0363829 0.0335712 0.034261 0.018292 -0.00159152 0.00493019 0.00632369 0.00591685 0.0099456 0.0187628 0.0152746 0.00437419 -0.00142958 0.00570847 0.0107735 0.0104792 0.0094405 0.0085481 0.00787351 0.00714531 0.00641154 0.00537386 0.00412861 0.0019946 0.00918909 0.00840293 0.00667657 0.00975664 0.012136 0.00895971 0.00614849 0.0061745 0.00603248 0.00578649 0.00586249 0.0118343 0.014441 0.0146621 0.0132166 0.0148957 0.0178171 0.0240828 0.0226814 0.0106189 0.00396206 0.0097066 0.0125612 0.0120601 0.0111285 0.0103349 0.00989333 0.00957388 0.00947094 0.00940909 0.00940742 0.00939124 0.019366 0.0224648 0.0225935 0.0224832 0.0236142 -0.00669111 -0.0257227 -0.0235211 -0.0249597 -0.0225046 -0.021738 0.00466637 0.0287257 0.0247895 0.0208608 0.0226816 0.0240976 0.0269463 0.0249142 0.0171338 0.0140938 0.0153884 0.0148833 0.0134973 0.0123945 0.011707 0.0115684 0.0117574 0.0123761 0.0133993 0.014816 0.0171901 0.0290124 0.0349621 0.0303419 0.0257717 0.0407328 -0.0145576 -0.0527949 -0.0531494 -0.0546127 -0.0495787 -0.0420754 0.00585016 0.0458327 0.0227182 0.0224245 0.0307714 0.0315567 0.0334235 0.0314112 0.0254536 0.0222847 0.0211431 0.0177918 0.0152702 0.0135281 0.0128681 0.0129732 0.0136847 0.0150214 0.0170429 0.0198418 0.0241615 0.035025 0.044552 0.0457371 0.0387229 0.0434675 -0.0137261 -0.0751764 -0.0842105 -0.0849882 -0.0817072 -0.0635038 0.00417722 0.0476977 0.035934 0.0372437 0.0385735 0.034549 0.0365716 0.0365512 0.0350963 0.0309934 0.0259743 0.0191303 0.0153525 0.0133001 0.0130409 0.0135555 0.0148243 0.0167164 0.0193834 0.0230045 0.0283336 0.0384373 0.0497058 0.0619281 0.0659077 0.0479252 -0.0158427 -0.100491 -0.121624 -0.120778 -0.121931 -0.0911062 0.00464806 0.0580331 0.062509 0.0532953 0.0431224 0.0380635 0.0481198 0.0453225 0.0381417 0.035555 0.0346667 0.0221185 0.0154744 0.0123593 0.0124699 0.0134512 0.0153314 0.0177197 0.0208574 0.0249815 0.0307027 0.0363171 0.0450951 0.0566893 0.067359 0.0690655 0.0140339 -0.0970348 -0.152296 -0.154639 -0.145578 -0.0668203 0.0315304 0.0682929 0.0573828 0.0429109 0.0300729 0.0261752 0.0424494 0.0546778 0.063918 0.0545414 0.037358 0.0174734 0.00973507 0.00815726 0.0101805 0.0123909 0.0150734 0.0177942 0.0209884 0.0248641 0.0298158 0.0322377 0.0371376 0.0434575 0.0460909 0.0469449 0.0197439 -0.0565064 -0.126843 -0.148852 -0.109194 -0.0290856 0.0225432 0.0406402 0.0352387 0.0273338 0.0211746 0.041954 0.0818708 0.0455622 0.0160344 0.0247046 0.0570974 0.040205 0.0129064 0.00598143 0.00785607 0.0111663 0.0145507 0.0174699 0.0204875 0.0238155 0.0275849 0.0274967 0.0295401 0.0312312 0.0286981 0.0210651 -0.00144884 -0.037675 -0.0748984 -0.096523 -0.0612521 -0.025918 0.00575467 0.0196081 0.0204896 0.0163428 0.015147 0.0518416 0.0786813 0.0266815 -0.0133911 0.00629327 0.0648644 0.0649949 0.023446 0.00797922 0.00736312 0.0105941 0.014267 0.0170696 0.0196475 0.022194 0.0247293 0.0234672 0.0237962 0.0234232 0.0194955 0.0122658 -0.00248202 -0.0279048 -0.0464659 -0.0534741 -0.040779 -0.0196254 0.00142714 0.0125746 0.01641 0.0171258 0.0135401 0.0148365 0.0214572 0.0221286 0.030813 0.0344686 0.0387526 0.0422834 0.0291029 0.017622 0.0121595 0.0131842 0.0155231 0.0173926 0.019062 0.0206757 0.0221015 0.020166 0.0194684 0.017975 0.0137431 0.00741709 -0.00322081 -0.0164808 -0.0274984 -0.0321072 -0.023109 -0.0110052 0.00267744 0.0121662 0.0180048 0.0218279 0.0252827 0.021393 0.0229783 -0.00385677 -0.00841587 0.0127897 0.0358715 0.03606 0.03078 0.0233283 0.0188253 0.0177853 0.0176519 0.0180305 0.0186182 0.0193265 0.0198397 0.0176879 0.0165828 0.0148213 0.0112166 0.00632072 -0.000701143 -0.00916501 -0.0150421 -0.0168223 -0.0120651 -0.0042569 0.00571411 0.0141766 0.0214062 0.0241509 0.0210123 0.00239479 -0.00615179 0.0238497 0.0365093 0.0141731 -0.00366035 0.00785717 0.0194647 0.0227628 0.0217101 0.0199964 0.0186439 0.0181456 0.0179946 0.0180568 0.0179679 0.0158585 0.0146277 0.0129079 0.00996886 0.00634981 0.00158142 -0.00324857 -0.00668919 -0.00744803 -0.00420553 0.00114551 0.00814315 0.0152959 0.0226655 0.02902 0.0277904 0.00450953 -0.0109068 0.0202222 0.0290432 0.00118476 -0.0204718 0.000601815 0.0202769 0.0257856 0.0233836 0.0209041 0.0189077 0.0179268 0.0173015 0.0169355 0.0164742 0.0144721 0.0133611 0.0119185 0.00973163 0.00718536 0.00410452 0.0011778 -0.000704284 -0.000839485 0.00129923 0.00494872 0.00983277 0.015067 0.0206644 0.0265241 0.0307266 0.0255744 0.00439951 -0.013299 -0.0229689 -0.0180793 0.00313682 0.0219147 0.0262996 0.0253615 0.0219879 0.0196846 0.0179403 0.0169658 0.016251 0.0157394 0.0151635 0.0134397 0.0125356 0.0114282 0.00988835 0.00819428 0.00626317 0.00460743 0.00360892 0.00373021 0.00520067 0.00765919 0.010861 0.0143116 0.0176185 0.0205891 0.0214196 0.0169152 0.00369348 -0.00112805 -0.00335778 -0.00682702 0.00117316 0.0138634 0.0186102 0.019614 0.0185414 0.0175517 0.0165032 0.0157791 0.0151525 0.014639 0.0140785 0.0125758 0.0119546 0.0112304 0.0102881 0.00929693 0.00823091 0.00738485 0.0069585 0.00719356 0.00818503 0.00973827 0.0117122 0.0137459 0.0155511 0.0168806 0.0167066 0.0141158 0.00673446 0.000717291 -0.00235415 -0.00128125 0.00554433 0.0121684 0.015149 0.016126 0.0158825 0.0154409 0.0148515 0.0143601 0.0138999 0.0134898 0.0130541 0.0118459 0.0115208 0.011176 0.0107643 0.0103674 0.00997708 0.00972622 0.0096962 0.0099678 0.0105987 0.0114457 0.0124844 0.0134367 0.014173 0.0143997 0.0135735 0.0114661 0.00728687 0.00427407 0.00308068 0.00279583 0.00610541 0.00959303 0.0120159 0.0131464 0.0135217 0.0134887 0.0132642 0.0129814 0.0126899 0.0124091 0.012129 0.0111229 0.0111066 0.011145 0.0112398 0.0113915 0.0116016 0.0118522 0.0121585 0.0124545 0.0128008 0.0130594 0.0133369 0.0134153 0.0133709 0.0129102 0.0119353 0.010268 0.00778759 0.00561785 0.00467184 0.00485082 0.00691118 0.00881384 0.0104351 0.0112493 0.0117018 0.0117834 0.0117383 0.0115926 0.0114422 0.0112973 0.0111891 0.0103637 0.0106484 0.0110653 0.0116648 0.0123678 0.0131853 0.0139497 0.0146108 0.0149426 0.0150307 0.014725 0.0143019 0.0136014 0.0129031 0.0119038 0.0107816 0.00927993 0.00764887 0.00617958 0.00569303 0.00555927 0.00675308 0.00780555 0.00898598 0.00961987 0.0100952 0.0102435 0.0103046 0.0102531 0.0102068 0.010176 0.0102235 0.00947269 0.010044 0.010835 0.0119663 0.0132709 0.0147852 0.0161714 0.0172873 0.0177025 0.0175347 0.0166284 0.0154593 0.0139739 0.0126519 0.0111904 0.0099388 0.00856988 0.00740211 0.0063764 0.00601804 0.00596458 0.00665556 0.00726073 0.00801613 0.00843087 0.00878621 0.00889933 0.00896473 0.00894058 0.00894232 0.00898441 0.0091539 0.00836218 0.00919143 0.0103466 0.0120659 0.0140838 0.0164935 0.018753 0.0205474 0.0211279 0.0206246 0.0189058 0.0167906 0.0143585 0.0123328 0.0103664 0.00892788 0.00758867 0.00667009 0.00592584 0.00571938 0.00565842 0.00608723 0.00647008 0.00698189 0.00727774 0.00753689 0.00761247 0.00764853 0.00761268 0.00761368 0.00767627 0.00791625 0.00693666 0.00796233 0.00943878 0.0118011 0.0146785 0.018283 0.0218571 0.0246763 0.0255601 0.0245855 0.0217994 0.0183043 0.0146756 0.0118135 0.00932109 0.00772178 0.00645668 0.00576835 0.00533455 0.00528098 0.0053263 0.00559605 0.00586397 0.0061617 0.00633785 0.0064601 0.00645009 0.00639604 0.00628506 0.00621552 0.00622048 0.00645118 
        </DataArray>
        <DataArray Name="vz" NumberOfComponents="1" type="Float32" format="ascii">
0 0 0 0 0 0 0 0 0 0 0 0 0 0 0 0 0 0 0 0 0 0 0 0 0 0 0 0 0 0 0 0 0 0 0 0 0 0 0 0 0 0 0 0 0 0 0 0 0 0 0 0 0 0 0 0 0 0 0 0 0 0 0 0 0 0 0 0 0 0 0 0 0 0 0 0 0 0 0 0 0 0 0 0 0 0 0 0 0 0 0 0 0 0 0 0 0 0 0 0 0 0 0 0 0 0 0 0 0 0 0 0 0 0 0 0 0 0 0 0 0 0 0 0 0 0 0 0 0 0 0 0 0 0 0 0 0 0 0 0 0 0 0 0 0 0 0 0 0 0 0 0 0 0 0 0 0 0 0 0 0 0 0 0 0 0 0 0 0 0 0 0 0 0 0 0 0 0 0 0 0 0 0 0 0 0 0 0 0 0 0 0 0 0 0 0 0 0 0 0 0 0 0 0 0 0 0 0 0 0 0 0 0 0 0 0 0 0 0 0 0 0 0 0 0 0 0 0 0 0 0 0 0 0 0 0 0 0 0 0 0 0 0 0 0 0 0 0 0 0 0 0 0 0 0 0 0 0 0 0 0 0 0 0 0 0 0 0 0 0 0 0 0 0 0 0 0 0 0 0 0 0 0 0 0 0 0 0 0 0 0 0 0 0 0 0 0 0 0 0 0 0 0 0 0 0 0 0 0 0 0 0 0 0 0 0 0 0 0 0 0 0 0 0 0 0 0 0 0 0 0 0 0 0 0 0 0 0 0 0 0 0 0 0 0 0 0 0 0 0 0 0 0 0 0 0 0 0 0 0 0 0 0 0 0 0 0 0 0 0 0 0 0 0 0 0 0 0 0 0 0 0 0 0 0 0 0 0 0 0 0 0 0 0 0 0 0 0 0 0 0 0 0 0 0 0 0 0 0 0 0 0 0 0 0 0 0 0 0 0 0 0 0 0 0 0 0 0 0 0 0 0 0 0 0 0 0 0 0 0 0 0 0 0 0 0 0 0 0 0 0 0 0 0 0 0 0 0 0 0 0 0 0 0 0 0 0 0 0 0 0 0 0 0 0 0 0 0 0 0 0 0 0 0 0 0 0 0 0 0 0 0 0 0 0 0 0 0 0 0 0 0 0 0 0 0 0 0 0 0 0 0 0 0 0 0 0 0 0 0 0 0 0 0 0 0 0 0 0 0 0 0 0 0 0 0 0 0 0 0 0 0 0 0 0 0 0 0 0 0 0 0 0 0 0 0 0 0 0 0 0 0 0 0 0 0 0 0 0 0 0 0 0 0 0 0 0 0 0 0 0 0 0 0 0 0 0 0 0 0 0 0 0 0 0 0 0 0 0 0 0 0 0 0 0 0 0 0 0 0 0 0 0 0 0 0 0 0 0 0 0 0 0 0 0 0 0 0 0 0 0 0 0 0 0 0 0 0 0 0 0 0 0 0 0 0 0 0 0 0 0 0 0 0 0 0 0 0 0 0 0 0 0 0 0 0 0 0 0 0 0 0 0 0 0 0 0 0 0 0 0 0 0 0 0 0 0 0 0 0 0 0 0 0 0 0 0 0 0 0 0 0 0 0 0 0 0 0 0 0 0 0 0 0 0 0 0 0 0 0 0 0 0 0 0 0 0 0 0 0 0 0 0 0 0 0 0 0 0 0 0 0 0 0 0 0 0 0 0 0 0 0 0 0 0 0 0 0 0 0 0 0 0 0 0 0 0 0 0 0 0 0 0 0 0 0 0 0 0 0 0 0 0 0 0 0 0 0 0 0 0 0 0 0 0 0 0 0 0 0 0 0 0 0 0 0 0 0 0 0 0 0 0 0 0 0 0 0 0 0 0 0 0 0 0 0 0 0 0 0 0 0 0 0 0 0 0 0 0 0 0 0 0 0 0 0 0 0 0 0 0 0 0 0 0 0 0 0 0 0 0 0 0 0 0 0 0 0 0 0 0 0 0 0 0 0 0 0 0 0 0 0 0 0 0 0 0 0 0 0 0 0 0 0 0 0 0 0 0 0 0 0 0 0 0 0 0 0 0 0 0 0 0 0 0 0 0 0 0 0 0 0 0 0 0 0 0 0 0 0 0 0 0 0 0 0 0 0 0 0 0 0 0 0 0 0 0 0 0 0 0 0 0 0 0 0 0 0 0 0 0 0 0 0 0 0 0 0 0 0 0 0 0 0 0 0 0 0 0 0 0 0 0 0 0 0 0 0 0 0 0 0 0 0 0 0 0 0 0 0 0 0 0 0 0 0 0 0 0 0 0 0 0 0 0 0 0 0 0 0 0 0 0 0 
        </DataArray>
        <DataArray Name="p" NumberOfComponents="1" type="Float32" format="ascii">