<?xml version="1.0"?>
<VTKFile type="StructuredGrid" version="0.1" byte_order="LittleEndian">
  <StructuredGrid WholeExtent="0 32 0 32 0 1">
    <Piece Extent="0 32 0 32 0 1">
      <PointData>
      </PointData>
      <CellData>
        <DataArray Name="vx" NumberOfComponents="1" type="Float32" format="ascii">
0.0207979 0.0208283 0.020879 0.0209464 0.0210041 0.0210497 0.0210539 0.0210131 0.0209003 0.0207111 0.0204368 0.0200773 0.0196693 0.0192195 0.0187952 0.0184152 0.0181233 0.0179392 0.0178843 0.0179413 0.0181893 0.0185266 0.0191281 0.0198927 0.0205778 0.021079 0.0211975 0.0211782 0.0210808 0.0209522 0.0208607 0.020807 0.0205465 0.0206282 0.0207248 0.0208377 0.0209391 0.0210319 0.0210837 0.0210945 0.0210294 0.020883 0.0206339 0.0202787 0.0198671 0.0193925 0.0189573 0.0185739 0.0183041 0.0181741 0.0181862 0.0183348 0.0186189 0.0189796 0.019445 0.0199478 0.020358 0.0206284 0.020694 0.0206648 0.0205982 0.0205282 0.020494 0.0205016 0.0202699 0.0203948 0.0205304 0.0206829 0.0208243 0.0209642 0.0210703 0.021149 0.0211571 0.0210858 0.0208901 0.0205533 0.0201362 0.0196156 0.0191493 0.0187441 0.0184867 0.0184086 0.0184857 0.0187247 0.01905 0.0194296 0.0197946 0.0201143 0.020309 0.0203704 0.0203355 0.0202442 0.0201703 0.0201234 0.0201272 0.0201809 0.0199593 0.0201194 0.0202853 0.0204685 0.0206432 0.0208281 0.021 0.0211754 0.0212993 0.0213555 0.0212339 0.0209185 0.0204984 0.0199037 0.0193938 0.0189511 0.018685 0.018664 0.0188168 0.019166 0.0195495 0.0199622 0.0202423 0.020403 0.0203853 0.0202236 0.0200566 0.0198661 0.019761 0.0197147 0.019744 0.0198339 0.0196043 0.0197921 0.0199781 0.0201788 0.0203763 0.0206019 0.0208599 0.0211829 0.0215001 0.0217716 0.0217913 0.0215195 0.0210564 0.0202977 0.0196688 0.0191394 0.0188568 0.018906 0.0191452 0.0196471 0.0201177 0.0206005 0.0208027 0.0208169 0.0205604 0.0201172 0.019789 0.0194665 0.0193222 0.019269 0.0193233 0.0194468 0.0192166 0.019424 0.019619 0.0198222 0.020037 0.0203107 0.0207141 0.0212816 0.0218997 0.0224716 0.0225228 0.0221723 0.0216597 0.0206822 0.0199799 0.0193797 0.0189817 0.0190908 0.019444 0.0201548 0.0207557 0.0213337 0.0214224 0.0212267 0.0206381 0.0198562 0.019394 0.0189611 0.0188136 0.0187736 0.018867 0.0190286 0.0187947 0.0190236 0.0192248 0.0194223 0.0196577 0.0199922 0.020594 0.0214413 0.0222897 0.0229764 0.0229421 0.0225289 0.0220238 0.0209301 0.020309 0.0198001 0.0193826 0.0194017 0.0196165 0.0204922 0.0212408 0.0220078 0.0219848 0.0216075 0.0205911 0.0192861 0.0187115 0.0182036 0.0181311 0.0181635 0.0183393 0.0185642 0.0184013 0.0186434 0.0188431 0.0190255 0.0192924 0.0196928 0.0205345 0.0215216 0.0222209 0.0225052 0.0212883 0.0203199 0.0206124 0.0203619 0.0212078 0.0216618 0.0208847 0.0204548 0.0201647 0.0208418 0.0216427 0.0226212 0.0224267 0.0216662 0.0198593 0.0179097 0.0174951 0.0171403 0.0173221 0.0175238 0.0178266 0.0181292 0.0180265 0.0183047 0.0185251 0.0187106 0.0190189 0.0194164 0.0202444 0.0205742 0.0195755 0.0178471 0.0164053 0.0167122 0.0182941 0.0196218 0.0221914 0.0246697 0.0254084 0.0240741 0.0215585 0.0210871 0.0216329 0.0229985 0.0228689 0.0221372 0.0193956 0.0161141 0.0157699 0.015654 0.0162348 0.016739 0.017248 0.017682 0.0178202 0.0180972 0.01831 0.0184692 0.0187429 0.0189308 0.0193587 0.0180037 0.0154739 0.014793 0.0180883 0.0214467 0.0219954 0.0225617 0.0221473 0.0237938 0.0269084 0.0276612 0.0250983 0.0223119 0.0220689 0.0241384 0.0242883 0.0219103 0.0165409 0.0125162 0.0137251 0.014482 0.0155668 0.0163423 0.0169692 0.0174606 0.01767 0.0179815 0.0182223 0.0183931 0.0186138 0.0185261 0.018367 0.0157047 0.0140767 0.0186985 0.0231115 0.023278 0.0221385 0.0215175 0.0192553 0.0165296 0.0154267 0.0205124 0.0240448 0.0216619 0.0213222 0.0231218 0.0233055 0.0177384 0.0103171 0.00865257 0.0115634 0.0132663 0.0147996 0.0159095 0.0166732 0.0172642 0.0178346 0.0180735 0.0182578 0.0184082 0.0184157 0.0182132 0.0174734 0.0163853 0.0203749 0.0235245 0.0215685 0.0204236 0.0200405 0.0204665 0.0200084 0.0178172 0.0150155 0.0134311 0.0175792 0.0197557 0.0177867 0.0143547 0.0115971 0.0102377 0.0121431 0.013562 0.0130624 0.0153097 0.0160728 0.0167999 0.01719 0.0175685 0.0179304 0.0181507 0.0183015 0.0184415 0.0182014 0.0179962 0.0166073 0.0185607 0.0206199 0.0184919 0.0175783 0.017865 0.0189362 0.0201631 0.0211263 0.0212133 0.0206136 0.0172934 0.016673 0.0179386 0.0163571 0.012308 0.010355 0.00883407 0.00952459 0.00867223 0.00934362 0.0144448 0.0156637 0.0168392 0.0173018 0.0176889 0.0183334 0.0183944 0.0184647 0.0185253 0.0183155 0.018033 0.0181025 0.0203266 0.0186965 0.0155482 0.0161657 0.0171134 0.0187107 0.0200853 0.0215064 0.0226904 0.0234829 0.0220653 0.0186836 0.0176135 0.0172635 0.0131863 0.0128305 0.0146255 0.0158504 0.0204303 0.0216503 0.0197331 0.0190715 0.0186235 0.018425 0.0183379 0.0185914 0.018559 0.0185868 0.0186642 0.0186048 0.018626 0.0197376 0.0230348 0.0201995 0.0157485 0.0163419 0.0172445 0.0189279 0.0202774 0.0217119 0.0231822 0.0241275 0.0232001 0.0195589 0.0183036 0.0186749 0.0169681 0.0161589 0.0175733 0.0221931 0.0262939 0.024995 0.0218616 0.020371 0.0194959 0.0190241 0.0187252 0.0188847 0.0187303 0.0186348 0.0186478 0.018308 0.0184197 0.0167113 0.0201673 0.0213182 0.0173506 0.0175433 0.0180394 0.0195762 0.0208021 0.0220332 0.0232173 0.0237233 0.0222852 0.0215822 0.0220043 0.0212469 0.0206332 0.0199407 0.0215096 0.0253179 0.026379 0.0243545 0.0224285 0.0212055 0.0202441 0.0196218 0.0191522 0.0191086 0.0188714 0.0187289 0.0186687 0.0185026 0.0183176 0.0169484 0.0150849 0.0178945 0.0211108 0.0203418 0.0197951 0.0205243 0.0212353 0.0217019 0.0219002 0.0198379 0.019056 0.0227287 0.0239908 0.0225649 0.0224942 0.0226791 0.0240327 0.0255028 0.025487 0.024255 0.0228061 0.0216979 0.0206901 0.0199979 0.0194464 0.0193373 0.0190439 0.0188772 0.0187387 0.0188322 0.0187025 0.018844 0.0153871 0.0182543 0.0247618 0.0243431 0.0236502 0.0229066 0.0211811 0.0189588 0.0174403 0.0144292 0.0169537 0.0225614 0.0231968 0.0228487 0.0230902 0.0237283 0.0247668 0.0253444 0.0250107 0.024052 0.0228187 0.0218365 0.0208904 0.0202374 0.0196914 0.0195617 0.0192445 0.0190328 0.0188114 0.0188472 0.0187293 0.0188927 0.0163669 0.0142 0.015758 0.0191706 0.0221959 0.0225867 0.0201104 0.0176125 0.0165663 0.0212067 0.026829 0.0256043 0.0235854 0.0227947 0.0230397 0.0237927 0.0246245 0.0245978 0.0243711 0.0237937 0.0226622 0.0218093 0.0209648 0.0203957 0.0199014 0.0198026 0.0195111 0.0192922 0.0190456 0.0190594 0.0190796 0.0195941 0.0189284 0.0168719 0.0151927 0.0153194 0.0164244 0.0178451 0.0207732 0.023523 0.026168 0.0284191 0.0271729 0.0238376 0.0222629 0.0220067 0.0221684 0.022873 0.0236506 0.0234487 0.0235527 0.0232274 0.0221083 0.0214614 0.0208308 0.020439 0.0200739 0.0200781 0.0198276 0.0196064 0.01934 0.0192597 0.019218 0.0196827 0.0198687 0.0196288 0.0188573 0.0176488 0.0170958 0.01712 0.0194155 0.0217981 0.023041 0.0231376 0.0218218 0.0208282 0.0205844 0.0204104 0.0197757 0.0211119 0.0221844 0.0202624 0.021172 0.0226165 0.0216302 0.0211209 0.0207301 0.0205036 0.0202777 0.0203404 0.0201615 0.0199657 0.0197167 0.0195755 0.0194612 0.0196886 0.0199537 0.0201306 0.019995 0.0193895 0.0188192 0.0180475 0.0182994 0.0188468 0.0190638 0.0194397 0.0195784 0.0195964 0.0196956 0.0190197 0.017678 0.0198064 0.0210864 0.0176424 0.01859 0.0211397 0.0206809 0.020492 0.0204946 0.0204772 0.0204433 0.0206401 0.0205112 0.0203362 0.0201124 0.0199425 0.019776 0.0198055 0.0199012 0.0200531 0.020081 0.0196734 0.0191351 0.0184028 0.018127 0.0181614 0.0183039 0.0186509 0.0190348 0.0191901 0.019404 0.0173166 0.016907 0.0169266 0.0173815 0.0217175 0.021551 0.0213811 0.0218181 0.0204415 0.0206517 0.0206142 0.0206982 0.0209052 0.020812 0.0206586 0.0204692 0.0202993 0.0201233 0.0200364 0.0199811 0.0199591 0.019895 0.0196099 0.0192052 0.0186275 0.0182486 0.0181062 0.0181405 0.0184232 0.0188466 0.0190857 0.0198369 0.0185334 0.020306 0.0210004 0.0188606 0.0209722 0.0210149 0.0237174 0.024065 0.0210598 0.0211192 0.0208614 0.0209659 0.0211056 0.0210505 0.0209203 0.0207594 0.0206004 0.0204334 0.0202998 0.0201668 0.020033 0.0198701 0.0195773 0.0192205 0.018785 0.0184525 0.0182992 0.018306 0.0185843 0.0190696 0.0200986 0.0216845 0.02536 0.0292935 0.0260112 0.0204115 0.0178071 0.015628 0.0165173 0.0184529 0.019458 0.0204173 0.020799 0.0210761 0.0212497 0.0212018 0.0210906 0.0209546 0.0208121 0.020661 0.020513 0.0203482 0.0201571 0.019929 0.0196186 0.0192605 0.0188548 0.0184999 0.0182499 0.018122 0.0181788 0.0184555 0.0191998 0.0205643 0.0240893 0.0288295 0.0261367 0.0202117 0.0162557 0.0135046 0.0131579 0.0154045 0.0189201 0.0201866 0.0209104 0.0211871 0.0214056 0.0213245 0.0212096 0.0210839 0.0209534 0.0208164 0.0206685 0.0204955 0.0202836 0.0200274 0.0197045 0.0193401 0.0189432 0.0185677 0.0182485 0.0180064 0.0178593 0.0178212 0.0179505 0.0181482 0.0185793 0.0191204 0.0190742 0.0179536 0.0146219 0.0132025 0.0141804 0.0164055 0.0195615 0.0206197 0.0212455 0.0213949 0.0215161 0.0213808 0.021257 0.0211425 0.0210278 0.0209074 0.0207677 0.0205976 0.0203816 0.0201155 0.0197879 0.0194144 0.0190058 0.0185962 0.0182051 0.0178543 0.0175436 0.0172507 0.0170618 0.0164947 0.0162483 0.0133723 0.0143353 0.0188273 0.0219347 0.0233809 0.0212133 0.0211473 0.0218738 0.0217641 0.0218 0.0216417 0.0215095 0.021365 0.0212508 0.0211557 0.0210623 0.0209627 0.0208384 0.02068 0.0204714 0.0202092 0.0198872 0.0195164 0.0191097 0.0186908 0.0182752 0.0178849 0.0175157 0.017155 0.0168715 0.0163238 0.0161199 0.0141492 0.0149398 0.0190865 0.0233438 0.025696 0.0237597 0.0227717 0.0225667 0.0221316 0.021934 0.0216809 0.021409 0.0212833 0.0211958 0.0211315 0.0210678 0.0209957 0.0208937 0.0207536 0.0205587 0.0203057 0.0199911 0.0196227 0.019216 0.0187893 0.0183613 0.017954 0.0175711 0.0172141 0.0169521 0.0165945 0.0166315 0.0161442 0.0171003 0.0196888 0.0223545 0.0239882 0.0233568 0.0229358 0.0226206 0.0221494 0.0218567 0.0215845 0.0212401 0.0211593 0.0211127 0.0210876 0.0210601 0.0210217 0.0209489 0.0208344 0.02066 0.0204225 0.0201191 0.0197557 0.0193527 0.0189255 0.0185024 0.0181052 0.017748 0.0174424 0.0172405 0.0170489 0.0171876 0.0172278 0.0181658 0.0199052 0.0215866 0.0227796 0.0226848 0.0224571 0.0221844 0.0218262 0.0215794 0.0213705 0.0210287 0.0210036 0.0210056 0.0210261 0.0210401 0.0210414 0.0210039 0.0209217 0.0207733 0.0205552 0.0202632 0.0199013 0.0194975 0.0190632 0.0186427 0.0182564 0.0179325 0.0176887 0.0175634 0.017517 0.017731 0.0180101 0.0187833 0.0199281 0.0209915 0.0217699 0.0218641 0.0217934 0.0216244 0.0213962 0.0212278 0.0210987 
        </DataArray>
        <DataArray Name="vy" NumberOfComponents="1" type="Float32" format="ascii">
0.0115376 0.011419 0.0113492 0.0113281 0.0113689 0.011465 0.0116308 0.0118439 0.0121137 0.0123954 0.01269 0.0129342 0.0131248 0.0132288 0.0132378 0.0131934 0.0130985 0.0130456 0.0130587 0.0131965 0.0135065 0.0138415 0.0143547 0.0144726 0.0144037 0.0139203 0.0133968 0.0129423 0.012509 0.0121838 0.0119103 0.0117012 0.0115004 0.0113531 0.011267 0.0112424 0.0112946 0.0114165 0.0116255 0.0118974 0.0122438 0.0126108 0.0129983 0.0133177 0.0135599 0.0136744 0.0136407 0.0135212 0.0133089 0.0131298 0.0130026 0.0130083 0.0131764 0.0134092 0.0137781 0.0139176 0.0139567 0.0136935 0.0133554 0.0129818 0.012597 0.0122572 0.0119527 0.0117017 0.0114117 0.0112401 0.0111405 0.0111135 0.0111754 0.0113212 0.0115685 0.0119002 0.0123262 0.012793 0.0132962 0.0137029 0.0140088 0.0141396 0.0140497 0.0138478 0.0134911 0.0131647 0.0128877 0.0127717 0.0128471 0.0130334 0.0133766 0.013572 0.0137231 0.0135904 0.0133651 0.0130265 0.0126515 0.0122813 0.0119387 0.0116469 0.0112875 0.0110926 0.0109796 0.0109492 0.0110137 0.0111734 0.0114393 0.0118143 0.0123039 0.0128769 0.0135222 0.0140685 0.0144874 0.0146618 0.0145028 0.0141896 0.0136402 0.0131396 0.012687 0.0124492 0.0124709 0.0126635 0.0130942 0.013394 0.01371 0.013659 0.0134965 0.0131395 0.0127278 0.0122976 0.0118985 0.0115585 0.0111246 0.0109126 0.0107897 0.0107559 0.0108123 0.0109688 0.0112153 0.0116099 0.0121459 0.0128688 0.0137443 0.0144523 0.0150214 0.0152556 0.0149874 0.0145683 0.0137706 0.0130315 0.0123836 0.0120345 0.0120614 0.0123317 0.0129568 0.013414 0.0139255 0.0138928 0.0137346 0.0132992 0.0128052 0.0122871 0.0118179 0.0114277 0.0109454 0.0107217 0.0105934 0.0105567 0.0105877 0.0107034 0.0108511 0.0111893 0.0117069 0.0125805 0.01374 0.0147912 0.0156757 0.0160491 0.0156351 0.015009 0.0138653 0.0128681 0.0119587 0.0114709 0.0115376 0.0119449 0.0129036 0.0135958 0.014451 0.0144013 0.0141922 0.0135982 0.0129522 0.0122985 0.0117314 0.0112807 0.0107221 0.0105065 0.0103834 0.0103397 0.0103071 0.0103043 0.0102208 0.0104459 0.0109642 0.0122628 0.0141088 0.0153584 0.016508 0.0169575 0.0162419 0.0156061 0.0140621 0.0125365 0.0113285 0.0106937 0.010918 0.0116282 0.0131246 0.0141724 0.0153638 0.0150636 0.01465 0.0138169 0.0129881 0.0122026 0.0115539 0.0110666 0.0104951 0.0103013 0.0101946 0.0101407 0.0100072 0.00980124 0.00938393 0.00951326 0.0101752 0.0118753 0.0140834 0.0156587 0.017215 0.0177886 0.0167329 0.0159106 0.0142718 0.0126782 0.0109313 0.00982816 0.0100841 0.0111357 0.0133165 0.0149025 0.0168194 0.0162117 0.0153849 0.0141787 0.0130626 0.0121074 0.0113596 0.0108385 0.0101895 0.0100562 0.00998203 0.00989489 0.00960313 0.00908939 0.00835962 0.00879362 0.0101183 0.0131232 0.0166232 0.0161386 0.0163856 0.016274 0.014723 0.0161193 0.015355 0.0130285 0.0110062 0.00910611 0.00918604 0.0107429 0.0141787 0.0168375 0.0193386 0.017281 0.0154326 0.013838 0.012568 0.0116236 0.0109185 0.0104648 0.00989249 0.00982248 0.00978731 0.00967171 0.00927175 0.00860213 0.00817795 0.0100687 0.0129946 0.0147876 0.0149355 0.0135524 0.0144458 0.0142735 0.0118001 0.0122929 0.0150273 0.0167081 0.0141208 0.00972839 0.00833123 0.00997985 0.0139515 0.0182529 0.0225575 0.0196806 0.0161067 0.0137796 0.0121406 0.0111615 0.0104819 0.0100959 0.00951768 0.00955064 0.00958536 0.00946822 0.00911279 0.00852154 0.00936367 0.0127436 0.0143463 0.00948127 0.0102829 0.0124747 0.0152458 0.0159 0.0138271 0.011461 0.0116152 0.0135357 0.0167808 0.0119225 0.00718085 0.00823082 0.015901 0.0258888 0.0296387 0.0198715 0.0132588 0.0116664 0.0105494 0.0100711 0.00972086 0.00956197 0.00921144 0.00929666 0.00937915 0.00928631 0.00909007 0.00875311 0.0108135 0.0134985 0.00982131 0.0058687 0.0112654 0.0143813 0.0162502 0.0170392 0.016656 0.015697 0.0119532 0.0084983 0.0130699 0.0123837 0.00730763 0.00938806 0.0184938 0.0298337 0.0302705 0.0178155 0.0124672 0.0109125 0.00984042 0.00948106 0.00924445 0.00917258 0.00896434 0.00910027 0.00923809 0.0092953 0.00931318 0.00955111 0.0111258 0.0110651 0.00715842 0.00846603 0.0123059 0.01401 0.0151903 0.0160124 0.0165573 0.0167851 0.0151212 0.0110812 0.010256 0.0122168 0.0109203 0.0134433 0.0208285 0.0273367 0.0280403 0.0199738 0.0100661 0.00802905 0.00861661 0.00872122 0.00879896 0.00884354 0.00879841 0.00895255 0.00913837 0.00937769 0.00966089 0.0102196 0.0106022 0.00911377 0.0088694 0.00976655 0.0119096 0.0130366 0.0139365 0.0147614 0.0155356 0.0162006 0.0157859 0.0127981 0.0119513 0.0129323 0.0143603 0.0157544 0.0219237 0.0281338 0.0283945 0.0183942 0.00688683 0.00603599 0.00771078 0.0082108 0.00851335 0.00864275 0.0088697 0.00893309 0.00909443 0.00937499 0.00978674 0.00958436 0.00863386 0.0103421 0.012647 0.0109447 0.0107721 0.0114073 0.012306 0.0132501 0.0140091 0.0148479 0.0156912 0.0156871 0.0150917 0.0130881 0.015023 0.017313 0.0206565 0.0252288 0.0233442 0.0145977 0.0101177 0.00954414 0.00939752 0.00911054 0.00895921 0.00886477 0.00900251 0.00898176 0.00909408 0.00942731 0.00985004 0.0094794 0.00649561 0.00762694 0.0163323 0.0133225 0.0105475 0.0103553 0.0109304 0.0119095 0.0126333 0.0137704 0.0159567 0.0173667 0.0168736 0.0136542 0.0156018 0.0185869 0.0206013 0.0216863 0.0194523 0.0150526 0.0122201 0.0110262 0.010294 0.00970709 0.00935644 0.0091225 0.00928326 0.00915184 0.0091888 0.00959697 0.0101186 0.010677 0.00754646 0.00562711 0.016282 0.0141679 0.0100614 0.00916045 0.00958814 0.0108506 0.0116176 0.0130746 0.016541 0.0174585 0.0155545 0.0137693 0.0164783 0.0187022 0.0198182 0.020057 0.0183691 0.0155825 0.0138615 0.0125373 0.0114822 0.0106301 0.010016 0.00957416 0.00959026 0.00935529 0.00930963 0.00962219 0.0101677 0.0109408 0.00937668 0.00636161 0.00936143 0.0120024 0.0121431 0.0104203 0.00948999 0.0106888 0.0119746 0.0158495 0.0202608 0.0139768 0.01153 0.0133822 0.0167806 0.0184239 0.0189584 0.0189913 0.0179998 0.0163041 0.0149808 0.013641 0.0124449 0.011425 0.0106181 0.0100137 0.00993578 0.00961144 0.00949846 0.00967038 0.0101763 0.0108962 0.0108005 0.00783693 0.00620564 0.00824086 0.0101332 0.0101346 0.0121686 0.0151953 0.0154419 0.0168141 0.0156062 0.00905358 0.0101665 0.0143043 0.0169341 0.017958 0.0181476 0.018449 0.0179808 0.0169085 0.0160394 0.0147519 0.0134247 0.0122264 0.0112273 0.0104711 0.0102425 0.00987754 0.00972469 0.00978791 0.0101682 0.0107962 0.0114508 0.0106121 0.00954056 0.00745878 0.00672798 0.00744057 0.0111001 0.0150631 0.0145146 0.0134424 0.0106903 0.0109265 0.0136304 0.0159064 0.0170997 0.0174007 0.0172298 0.0184117 0.0183542 0.0170527 0.0166781 0.0155873 0.0141299 0.0128119 0.0116765 0.0108337 0.010505 0.0101319 0.00995966 0.00993399 0.0101436 0.0104678 0.0110184 0.0108048 0.0103388 0.0091528 0.00825401 0.00751014 0.00824887 0.0104499 0.0108987 0.0120182 0.0130219 0.0136207 0.0149475 0.0161715 0.0170305 0.0172274 0.0165634 0.0178105 0.017784 0.0172126 0.0175306 0.016548 0.0147359 0.0132691 0.0120042 0.0111178 0.0106801 0.0103484 0.0101935 0.0101411 0.0102454 0.0103748 0.0107073 0.0106392 0.010509 0.00955508 0.00871028 0.0081514 0.00851947 0.0098518 0.0106218 0.0117684 0.0125097 0.0136272 0.0149429 0.0163115 0.0178807 0.0165776 0.0140938 0.0202711 0.0197777 0.0143678 0.0160675 0.0171411 0.0149784 0.0134463 0.0121087 0.011255 0.0107812 0.0105187 0.0103973 0.0103452 0.0103856 0.0103984 0.0105233 0.0104206 0.0103311 0.00982571 0.00933265 0.00887166 0.00890509 0.00966333 0.0103519 0.0113947 0.0123383 0.0133855 0.014809 0.0166845 0.0192036 0.017075 0.0132647 0.019435 0.0194465 0.014303 0.0154299 0.017206 0.0147808 0.0133079 0.012017 0.0112696 0.0108573 0.0106594 0.0105787 0.0105444 0.0105593 0.0105298 0.0105488 0.0104134 0.0103084 0.00996669 0.00967026 0.00944264 0.00949277 0.0099533 0.0104522 0.011185 0.0119514 0.0131219 0.014809 0.0179505 0.0211003 0.0154715 0.0136772 0.0156845 0.0159445 0.014399 0.0148561 0.0192406 0.0161519 0.0135387 0.0120591 0.0112756 0.0109018 0.0107709 0.0107322 0.010717 0.0107215 0.0106822 0.0106533 0.0105228 0.0104079 0.0101811 0.0099989 0.00985924 0.00988576 0.0101549 0.0105017 0.0110037 0.0116207 0.0125247 0.0139105 0.0164622 0.0193389 0.0141716 0.0164833 0.0186412 0.0178149 0.0125198 0.0122344 0.01957 0.0168057 0.0134345 0.0119753 0.0112151 0.0108891 0.0108534 0.0108629 0.0108698 0.0108746 0.0108413 0.0108016 0.010695 0.0105937 0.0104362 0.0103161 0.0102405 0.0102616 0.0104137 0.0106233 0.0108988 0.0112529 0.0116717 0.012298 0.0128051 0.0137365 0.0140217 0.0226184 0.0232471 0.0209163 0.0142486 0.0127657 0.0166624 0.0147503 0.0124265 0.0114871 0.0110234 0.0108752 0.0109291 0.0109773 0.0110021 0.0110114 0.0109907 0.0109595 0.0108891 0.0108194 0.0107254 0.0106575 0.0106216 0.0106446 0.0107415 0.0108776 0.0110501 0.0112656 0.0115116 0.0117724 0.0118 0.0111041 0.0123659 0.0256648 0.0281346 0.0258175 0.0141923 0.0113212 0.012629 0.0119746 0.0111944 0.0109182 0.0108332 0.0109769 0.0110517 0.0111023 0.0111277 0.0111382 0.0111307 0.0111177 0.0110862 0.0110578 0.0110213 0.0110025 0.0110056 0.0110391 0.0111091 0.0111972 0.0113046 0.0114426 0.0116323 0.011891 0.0122014 0.0122353 0.0136153 0.0235252 0.0270193 0.0258833 0.0144253 0.0107641 0.0110283 0.0109104 0.0108095 0.0108076 0.0108818 0.0111363 0.0111848 0.0112167 0.0112338 0.0112461 0.0112542 0.0112673 0.0112783 0.0112985 0.0113199 0.0113543 0.0113998 0.0114581 0.0115311 0.0116085 0.0117032 0.0118288 0.0120345 0.0123857 0.0129003 0.0138365 0.015017 0.019908 0.0216025 0.020799 0.0152892 0.0126543 0.0120452 0.0113318 0.0111206 0.0110388 0.0110788 0.0113059 0.0113097 0.0113124 0.0113162 0.0113305 0.0113557 0.0113998 0.0114551 0.0115285 0.0116074 0.0116967 0.0117848 0.0118696 0.0119473 0.0120112 0.0120813 0.0121697 0.0123397 0.0126501 0.0131475 0.0140871 0.0151214 0.0180674 0.0186919 0.0182623 0.015248 0.0131757 0.0123572 0.0116716 0.011449 0.0113245 0.0113065 0.0114402 0.0113962 0.0113702 0.0113626 0.0113828 0.011429 0.0115098 0.0116135 0.0117461 0.0118862 0.012036 0.0121709 0.0122885 0.0123782 0.012436 0.0124872 0.0125427 0.0126722 0.0129202 0.0133293 0.0140694 0.0148092 0.0163282 0.016604 0.0162872 0.0147046 0.0134494 0.0127295 0.0121043 0.0118091 0.0116077 0.0115071 0.011521 0.0114355 0.0113845 0.0113681 0.011397 0.0114666 0.011588 0.0117439 0.0119415 0.0121481 0.012365 0.0125512 0.0127029 0.0127994 0.0128365 0.0128447 0.012833 0.0128785 0.0130128 0.013286 0.0137919 0.0143046 0.0151909 0.0153475 0.0151792 0.0142959 0.0134545 0.0128725 0.0123569 0.0120444 0.0118029 0.0116418 
        </DataArray>
        <DataArray Name="vz" NumberOfComponents="1" type="Float32" format="ascii">
0 0 0 0 0 0 0 0 0 0 0 0 0 0 0 0 0 0 0 0 0 0 0 0 0 0 0 0 0 0 0 0 0 0 0 0 0 0 0 0 0 0 0 0 0 0 0 0 0 0 0 0 0 0 0 0 0 0 0 0 0 0 0 0 0 0 0 0 0 0 0 0 0 0 0 0 0 0 0 0 0 0 0 0 0 0 0 0 0 0 0 0 0 0 0 0 0 0 0 0 0 0 0 0 0 0 0 0 0 0 0 0 0 0 0 0 0 0 0 0 0 0 0 0 0 0 0 0 0 0 0 0 0 0 0 0 0 0 0 0 0 0 0 0 0 0 0 0 0 0 0 0 0 0 0 0 0 0 0 0 0 0 0 0 0 0 0 0 0 0 0 0 0 0 0 0 0 0 0 0 0 0 0 0 0 0 0 0 0 0 0 0 0 0 0 0 0 0 0 0 0 0 0 0 0 0 0 0 0 0 0 0 0 0 0 0 0 0 0 0 0 0 0 0 0 0 0 0 0 0 0 0 0 0 0 0 0 0 0 0 0 0 0 0 0 0 0 0 0 0 0 0 0 0 0 0 0 0 0 0 0 0 0 0 0 0 0 0 0 0 0 0 0 0 0 0 0 0 0 0 0 0 0 0 0 0 0 0 0 0 0 0 0 0 0 0 0 0 0 0 0 0 0 0 0 0 0 0 0 0 0 0 0 0 0 0 0 0 0 0 0 0 0 0 0 0 0 0 0 0 0 0 0 0 0 0 0 0 0 0 0 0 0 0 0 0 0 0 0 0 0 0 0 0 0 0 0 0 0 0 0 0 0 0 0 0 0 0 0 0 0 0 0 0 0 0 0 0 0 0 0 0 0 0 0 0 0 0 0 0 0 0 0 0 0 0 0 0 0 0 0 0 0 0 0 0 0 0 0 0 0 0 0 0 0 0 0 0 0 0 0 0 0 0 0 0 0 0 0 0 0 0 0 0 0 0 0 0 0 0 0 0 0 0 0 0 0 0 0 0 0 0 0 0 0 0 0 0 0 0 0 0 0 0 0 0 0 0 0 0 0 0 0 0 0 0 0 0 0 0 0 0 0 0 0 0 0 0 0 0 0 0 0 0 0 0 0 0 0 0 0 0 0 0 0 0 0 0 0 0 0 0 0 0 0 0 0 0 0 0 0 0 0 0 0 0 0 0 0 0 0 0 0 0 0 0 0 0 0 0 0 0 0 0 0 0 0 0 0 0 0 0 0 0 0 0 0 0 0 0 0 0 0 0 0 0 0 0 0 0 0 0 0 0 0 0 0 0 0 0 0 0 0 0 0 0 0 0 0 0 0 0 0 0 0 0 0 0 0 0 0 0 0 0 0 0 0 0 0 0 0 0 0 0 0 0 0 0 0 0 0 0 0 0 0 0 0 0 0 0 0 0 0 0 0 0 0 0 0 0 0 0 0 0 0 0 0 0 0 0 0 0 0 0 0 0 0 0 0 0 0 0 0 0 0 0 0 0 0 0 0 0 0 0 0 0 0 0 0 0 0 0 0 0 0 0 0 0 0 0 0 0 0 0 0 0 0 0 0 0 0 0 0 0 0 0 0 0 0 0 0 0 0 0 0 0 0 0 0 0 0 0 0 0 0 0 0 0 0 0 0 0 0 0 0 0 0 0 0 0 0 0 0 0 0 0 0 0 0 0 0 0 0 0 0 0 0 0 0 0 0 0 0 0 0 0 0 0 0 0 0 0 0 0 0 0 0 0 0 0 0 0 0 0 0 0 0 0 0 0 0 0 0 0 0 0 0 0 0 0 0 0 0 0 0 0 0 0 0 0 0 0 0 0 0 0 0 0 0 0 0 0 0 0 0 0 0 0 0 0 0 0 0 0 0 0 0 0 0 0 0 0 0 0 0 0 0 0 0 0 0 0 0 0 0 0 0 0 0 0 0 0 0 0 0 0 0 0 0 0 0 0 0 0 0 0 0 0 0 0 0 0 0 0 0 0 0 0 0 0 0 0 0 0 0 0 0 0 0 0 0 0 0 0 0 0 0 0 0 0 0 0 0 0 0 0 0 0 0 0 0 0 0 0 0 0 0 0 0 0 0 0 0 0 0 0 0 0 0 0 0 0 0 0 0 0 0 0 0 0 0 0 0 0 0 0 0 0 0 0 0 0 0 0 0 0 0 0 0 0 0 0 0 0 0 0 0 0 0 0 0 0 0 0 0 0 0 0 0 0 0 0 0 0 0 0 0 0 0 0 0 0 0 0 0 0 0 0 0 0 0 0 0 0 0 0 0 0 0 0 0 0 0 0 
        </DataArray>
        <DataArray Name="p" NumberOfComponents="1" type="Float32" format="ascii">