<?xml version="1.0"?>
<VTKFile type="StructuredGrid" version="0.1" byte_order="LittleEndian">
  <StructuredGrid WholeExtent="0 32 0 32 0 1">
    <Piece Extent="0 32 0 32 0 1">
      <PointData>
      </PointData>
      <CellData>
        <DataArray Name="vx" NumberOfComponents="1" type="Float32" format="ascii">
0.0203213 0.0202815 0.0202639 0.0202555 0.0202477 0.0202346 0.0202056 0.0201613 0.020091 0.0199985 0.0198822 0.0197387 0.0195904 0.0194276 0.0192866 0.0191568 0.0190816 0.0190393 0.0190988 0.0191924 0.019412 0.0196802 0.0200421 0.0204479 0.0208819 0.0210577 0.0209842 0.0209556 0.0207677 0.0206308 0.0204891 0.0203866 0.0200885 0.020089 0.020106 0.0201278 0.0201456 0.0201561 0.0201487 0.0201302 0.0200857 0.020025 0.0199418 0.019827 0.0197148 0.0195816 0.0194737 0.0193789 0.019331 0.0193389 0.0194344 0.0195807 0.0198059 0.0200515 0.0203139 0.020552 0.0207377 0.0207701 0.0206562 0.0205549 0.0203888 0.0202673 0.0201694 0.0201105 0.0198349 0.0198687 0.0199126 0.019955 0.0199876 0.0200116 0.020018 0.0200262 0.0200158 0.0200074 0.0199851 0.0199257 0.0198758 0.0197891 0.0197273 0.0196733 0.0196517 0.0197046 0.0198325 0.020027 0.0202605 0.0204899 0.0206664 0.0207639 0.0207521 0.0206228 0.0204159 0.0202219 0.0200411 0.0199153 0.0198455 0.0198203 0.0195612 0.0196207 0.0196825 0.0197332 0.0197679 0.0197943 0.0198085 0.0198535 0.0198913 0.019966 0.020026 0.0200323 0.0200743 0.0200575 0.0200732 0.0200739 0.0200661 0.0201644 0.0203343 0.0205847 0.020839 0.0210581 0.0211473 0.0210932 0.0208688 0.0205399 0.0202023 0.0199023 0.0196912 0.019556 0.0195101 0.0195144 0.0192515 0.0193347 0.0194077 0.0194541 0.0194743 0.0194883 0.0195037 0.0196021 0.0197138 0.019911 0.0200974 0.0202064 0.0203735 0.0204403 0.0205468 0.0206133 0.0206102 0.0207302 0.0209286 0.0212361 0.0215218 0.0217384 0.0217399 0.021527 0.0210636 0.0204886 0.0199786 0.0195499 0.0192963 0.0191505 0.0191321 0.0191698 0.0189343 0.0190402 0.019119 0.0191518 0.01915 0.0191534 0.0191855 0.0193778 0.0195527 0.0198653 0.0200876 0.0201794 0.0205266 0.0208067 0.0212004 0.0214157 0.0213178 0.0214054 0.0216165 0.0219689 0.0223104 0.0225346 0.022429 0.0219792 0.0211441 0.0202355 0.0195556 0.0190427 0.0187987 0.0186859 0.0187241 0.0188113 0.0185918 0.0187349 0.0188268 0.0188473 0.0188219 0.0188149 0.0188588 0.0190981 0.0191616 0.0193127 0.0193687 0.0194759 0.0202342 0.0210436 0.0220783 0.0227727 0.0226623 0.0224733 0.022431 0.0226629 0.022998 0.0232183 0.0229956 0.0223151 0.0210668 0.0197476 0.0188714 0.0183045 0.0181227 0.0180964 0.0182346 0.0184046 0.0183261 0.0185152 0.0186311 0.0186568 0.0186344 0.0186332 0.0186395 0.0186996 0.0179604 0.0173438 0.0166129 0.0162242 0.0179717 0.0206139 0.0238382 0.0257269 0.0252672 0.0244855 0.0238227 0.0234683 0.0236532 0.0239219 0.0236606 0.0225493 0.0203732 0.0183661 0.0174731 0.017137 0.0172435 0.0174558 0.0177706 0.0180608 0.0180754 0.0183506 0.0185274 0.0185932 0.0185889 0.0185328 0.0182668 0.0174227 0.0147687 0.0122278 0.0112654 0.0123781 0.0159833 0.0203732 0.0252814 0.0293945 0.0302206 0.0285027 0.0263208 0.0245363 0.0240141 0.0241506 0.0238296 0.0225185 0.0196522 0.016854 0.0157705 0.0156866 0.0161485 0.0166776 0.0172276 0.0176913 0.0180776 0.0184267 0.0186823 0.0188327 0.0188993 0.0187352 0.0179585 0.0155762 0.0101069 0.00857748 0.0131117 0.0182634 0.0213098 0.0219176 0.0220296 0.0254461 0.0293138 0.0304591 0.0294494 0.0259567 0.0244298 0.0249789 0.0253939 0.0227203 0.0167176 0.0126932 0.0128782 0.0141171 0.015287 0.0162612 0.017021 0.0176162 0.018088 0.0185609 0.0189441 0.0192407 0.0194161 0.0192089 0.0182136 0.0149923 0.0113911 0.0172292 0.0253473 0.0265085 0.0246094 0.0214436 0.0174146 0.0143066 0.0153049 0.0215499 0.0273225 0.0258821 0.0232711 0.0223564 0.0221837 0.019043 0.0117357 0.00906985 0.0108168 0.0128062 0.0145124 0.0158255 0.0167645 0.0175147 0.0185224 0.0190124 0.0195055 0.0200081 0.0205385 0.020681 0.0210338 0.0193899 0.0248771 0.0310361 0.0290835 0.026792 0.0234549 0.020847 0.0177629 0.013644 0.0115757 0.0125986 0.0190295 0.0214315 0.017965 0.0157725 0.013051 0.0109709 0.0115039 0.0114037 0.0113146 0.0143051 0.0156836 0.0168062 0.0174526 0.0180389 0.01875 0.0193222 0.019924 0.0206722 0.0214144 0.0224757 0.0238009 0.0278917 0.0331134 0.031148 0.0264499 0.0239201 0.0218252 0.0202574 0.0185547 0.0162816 0.0138061 0.0104402 0.0078577 0.011382 0.0144747 0.0173219 0.0154199 0.00917953 0.0128044 0.0120456 0.0110134 0.0147595 0.0157262 0.0170324 0.0176233 0.0182469 0.0193241 0.0197493 0.0203269 0.0211689 0.0222172 0.0239663 0.0273559 0.0340216 0.0343157 0.0278577 0.0245143 0.0225283 0.0211493 0.0199805 0.0188896 0.0177661 0.0163392 0.0138379 0.00943703 0.0094012 0.011595 0.00902869 0.00898779 0.0105303 0.0156072 0.0214896 0.021751 0.0202628 0.0195693 0.0191219 0.0190111 0.0190907 0.0195235 0.0198626 0.0203775 0.0211725 0.0221656 0.0239414 0.0269173 0.0334392 0.0336291 0.0270432 0.0238758 0.0219606 0.0208268 0.0197984 0.0188817 0.0182603 0.0173009 0.015695 0.0140049 0.0138365 0.0141095 0.011549 0.0113782 0.0152341 0.0176082 0.0224176 0.0246179 0.0218048 0.0206184 0.0197811 0.0194749 0.0193973 0.0197272 0.0198504 0.0200939 0.0206016 0.0209471 0.0219416 0.0219472 0.026184 0.0295407 0.0261396 0.0237723 0.0220604 0.0208792 0.0195806 0.0181884 0.0171071 0.0153964 0.0141259 0.0135094 0.0140716 0.0155812 0.0158266 0.0163717 0.0200746 0.0226813 0.0239769 0.0243724 0.0225937 0.0215642 0.0206401 0.0201278 0.0198154 0.0197403 0.0196887 0.0197501 0.0199247 0.0200651 0.0201369 0.01947 0.0193604 0.0248758 0.0279906 0.0255653 0.0232558 0.0213312 0.0194448 0.0171816 0.0149928 0.0105683 0.00938595 0.0139222 0.0169381 0.0180825 0.0187039 0.0195253 0.0222771 0.0242939 0.0247845 0.0242933 0.0228228 0.0218536 0.0209419 0.0203545 0.0199463 0.0197577 0.0195483 0.0194337 0.0193151 0.0193218 0.0187715 0.0183844 0.0140096 0.018096 0.0266472 0.0269425 0.0259303 0.0230807 0.0188088 0.0137629 0.0092236 0.00495689 0.00671189 0.0138062 0.017796 0.0189108 0.0200377 0.0213294 0.023214 0.0242907 0.024404 0.0238839 0.0228284 0.0219579 0.0211218 0.0205181 0.0200579 0.0197393 0.0194157 0.019125 0.0187503 0.0184215 0.0176197 0.016473 0.0122582 0.00867714 0.0114356 0.0176682 0.021756 0.0213418 0.0179607 0.014474 0.0121489 0.0163448 0.0231471 0.0233979 0.0221385 0.0213808 0.0216138 0.0225914 0.0237333 0.0241232 0.0241187 0.0236063 0.0226732 0.0218419 0.0210971 0.0205336 0.0200872 0.0198005 0.0194443 0.0190827 0.0186185 0.0182151 0.0175511 0.0167841 0.0144253 0.0101944 0.00878826 0.0106048 0.0132447 0.0167889 0.0204072 0.0244161 0.0288778 0.0339417 0.0333731 0.0273496 0.0235832 0.0219894 0.0217095 0.0224785 0.023162 0.0233718 0.0234645 0.022976 0.0222047 0.0214917 0.0209366 0.0204943 0.0201336 0.0198954 0.0195481 0.019147 0.0186337 0.0181514 0.0175619 0.0170926 0.0161514 0.0144805 0.0134416 0.0128784 0.0132621 0.0157632 0.0204899 0.0255531 0.0293196 0.0307157 0.0279995 0.0241602 0.0222006 0.0210193 0.0204427 0.0217633 0.0222122 0.021522 0.0218608 0.0220592 0.0216348 0.0210404 0.0207122 0.0204138 0.0201823 0.0201002 0.0197878 0.0193944 0.0189 0.0184112 0.0178699 0.0174656 0.0170337 0.0163527 0.0160101 0.0158956 0.0161291 0.0171166 0.0194834 0.0221276 0.0238143 0.024636 0.0238698 0.0222017 0.0211847 0.0199002 0.0192987 0.0205067 0.0206058 0.0201613 0.0200087 0.0202056 0.0206471 0.0205418 0.0205561 0.0204351 0.020335 0.0202785 0.0200285 0.0196746 0.0192309 0.0187755 0.018289 0.0179161 0.0176365 0.0173906 0.0173476 0.0172867 0.0173786 0.017806 0.018951 0.020302 0.0213443 0.0218803 0.0216707 0.020767 0.0202113 0.0180945 0.0180242 0.0183228 0.0179113 0.0187127 0.0181425 0.0198315 0.0208968 0.0204253 0.0204741 0.0204183 0.0204405 0.0206465 0.0203694 0.0200209 0.0196191 0.0192095 0.0187841 0.018428 0.0181588 0.0179663 0.0179526 0.0179769 0.0180859 0.0182822 0.0188103 0.0194617 0.0200312 0.0204061 0.0205013 0.019996 0.0197194 0.0180136 0.0172044 0.0172568 0.01806 0.019743 0.0213229 0.0237508 0.0233619 0.0220215 0.021411 0.0210393 0.0208896 0.0207454 0.0205416 0.0202622 0.0199295 0.019588 0.0192373 0.0189301 0.0186811 0.0184962 0.0184297 0.0183974 0.0184432 0.0185459 0.0188332 0.0192033 0.0195605 0.019859 0.0200322 0.0201641 0.0206028 0.0210251 0.0213437 0.0206934 0.0198063 0.0182566 0.0188605 0.0194714 0.0190909 0.0201945 0.020458 0.0207749 0.0208288 0.0209878 0.0207569 0.0204902 0.0201932 0.0199006 0.0196093 0.019347 0.0191211 0.0189348 0.018822 0.0187406 0.0187166 0.0187213 0.0188212 0.0189754 0.0191326 0.0193376 0.0195133 0.0200455 0.020774 0.0234131 0.0240735 0.0221531 0.0209674 0.0179087 0.0187786 0.0195053 0.0185457 0.0201185 0.0207032 0.021115 0.0211014 0.0210501 0.020832 0.0206022 0.0203533 0.0201135 0.019878 0.0196615 0.0194653 0.0192889 0.0191502 0.0190261 0.0189372 0.0188662 0.0188421 0.0188502 0.0188399 0.0188763 0.0188168 0.0190321 0.0190031 0.0202557 0.0195575 0.0186563 0.0194746 0.0181274 0.0201604 0.0203646 0.0190883 0.0204851 0.0208877 0.0212362 0.0211669 0.0211124 0.0208841 0.0206689 0.0204525 0.0202525 0.02006 0.0198799 0.0197096 0.0195452 0.0193953 0.0192469 0.0191125 0.0189835 0.0188722 0.0187857 0.0186801 0.0186457 0.0185479 0.0186922 0.0187784 0.0191876 0.020391 0.0201608 0.0192364 0.019603 0.0176433 0.0169766 0.0195519 0.0206446 0.0212649 0.0214072 0.0212856 0.0210531 0.0208383 0.0206546 0.0204805 0.0203235 0.0201729 0.0200276 0.0198834 0.019735 0.0195857 0.0194281 0.0192696 0.0191094 0.0189499 0.0188068 0.018639 0.0185294 0.0183518 0.0183489 0.0182663 0.0183348 0.0189649 0.0188511 0.019363 0.0220308 0.0211035 0.0200013 0.021532 0.0215742 0.0216552 0.0214902 0.0212645 0.0209383 0.0207523 0.0206032 0.0204694 0.0203514 0.0202379 0.0201236 0.0200038 0.0198718 0.0197287 0.0195704 0.0194011 0.0192258 0.019044 0.018878 0.0186955 0.0185749 0.0184118 0.0184103 0.0183564 0.0184779 0.018697 0.018942 0.0199393 0.0220465 0.0222 0.0215975 0.0220034 0.0217381 0.0216318 0.0213811 0.0211435 0.0207519 0.0206139 0.0205104 0.020422 0.0203445 0.0202679 0.0201844 0.0200899 0.0199769 0.019846 0.0196953 0.0195269 0.0193509 0.0191651 0.0189954 0.0188178 0.0186977 0.0185587 0.0185578 0.0185418 0.0187275 0.0190232 0.0194836 0.0202823 0.0216201 0.0219363 0.021669 0.0218495 0.0215527 0.0213779 0.0211269 0.0209185 0.0205467 0.0204585 0.020399 0.0203523 0.0203115 0.0202684 0.0202134 0.0201437 0.0200506 0.0199353 0.0197969 0.0196354 0.0194673 0.019288 0.019128 0.0189715 0.0188726 0.0187831 0.0188143 0.0188591 0.0190727 0.0193609 0.0198055 0.0203995 0.0211695 0.0214553 0.0213584 0.0214043 0.0211703 0.0210126 0.0208173 0.0206628 
        </DataArray>
        <DataArray Name="vy" NumberOfComponents="1" type="Float32" format="ascii">
0.0118916 0.0117864 0.0117166 0.0116874 0.0117004 0.0117557 0.0118529 0.0119817 0.0121408 0.0123046 0.0124744 0.0126173 0.0127282 0.0128 0.0128205 0.0128142 0.0127913 0.0127733 0.0128406 0.0129383 0.013207 0.0134403 0.013782 0.0139106 0.0139394 0.0135212 0.0133401 0.0129647 0.012695 0.0124297 0.0122117 0.0120356 0.0119221 0.0117947 0.0117122 0.01168 0.0116969 0.0117635 0.0118763 0.012024 0.0122066 0.0123906 0.0125861 0.0127457 0.0128667 0.0129379 0.0129376 0.0129011 0.0128241 0.0127443 0.0127358 0.0127698 0.0129687 0.0131612 0.0134756 0.0136215 0.0137382 0.0135231 0.0133965 0.0130942 0.0128329 0.0125536 0.0123067 0.0120955 0.0119114 0.0117666 0.011677 0.0116475 0.0116725 0.0117534 0.0118817 0.0120458 0.0122513 0.0124493 0.0126764 0.012845 0.0129719 0.0130408 0.0130184 0.0129593 0.0128259 0.0126746 0.0125929 0.0125734 0.0127348 0.0129368 0.0132813 0.0135033 0.0137078 0.0136236 0.0135266 0.0132485 0.0129663 0.0126506 0.012363 0.0121129 0.0118776 0.0117188 0.0116275 0.0116059 0.0116406 0.0117315 0.0118625 0.0120204 0.0122264 0.0124137 0.012666 0.0128482 0.0130001 0.013085 0.0130524 0.0129776 0.0127937 0.0125684 0.0124125 0.0123474 0.0125018 0.0127585 0.0131947 0.0135436 0.0138655 0.013873 0.0137847 0.0134807 0.0131389 0.0127549 0.0124067 0.0121088 0.0118017 0.011642 0.0115628 0.011562 0.011614 0.0117139 0.0118341 0.0119632 0.0121593 0.0123122 0.0126269 0.0127942 0.0129442 0.0130312 0.0129954 0.0129637 0.0127369 0.0123996 0.0121702 0.0120664 0.0122561 0.0126332 0.0132452 0.0137964 0.0142613 0.0143006 0.0141567 0.0137569 0.0133058 0.0128226 0.0124001 0.0120545 0.0117195 0.0115661 0.0115097 0.0115383 0.0116061 0.0116915 0.0117509 0.0117888 0.0119241 0.0120099 0.0123737 0.0125492 0.0127719 0.012911 0.0128917 0.0129051 0.0126923 0.0122554 0.0119185 0.0117689 0.0120036 0.0125524 0.0133942 0.0142128 0.0148793 0.0149589 0.0147214 0.0141689 0.0135506 0.0129258 0.0123999 0.011995 0.0115648 0.0114511 0.0114489 0.0115305 0.0116231 0.0116793 0.011645 0.0115893 0.0117348 0.0117504 0.0123707 0.0123428 0.0122994 0.0122977 0.0123669 0.012852 0.0127649 0.012074 0.0115984 0.0113559 0.0116654 0.0125179 0.0137999 0.0151208 0.016025 0.0159163 0.0153425 0.0145028 0.0136496 0.0128763 0.0122629 0.0118295 0.0114023 0.0113371 0.0113996 0.0115351 0.0116358 0.0116221 0.0114706 0.0114347 0.0117309 0.0117898 0.0122209 0.0116008 0.0112583 0.0110989 0.0112149 0.0122517 0.0130279 0.0125127 0.0117508 0.0112724 0.0114652 0.0126059 0.014263 0.0160846 0.0173462 0.017161 0.0161543 0.014942 0.0137866 0.0128364 0.0121173 0.0116528 0.0110926 0.011134 0.0113053 0.0115266 0.0116707 0.0116756 0.0116483 0.0122352 0.0132432 0.0129343 0.0137102 0.0110179 0.00778684 0.00615487 0.00720609 0.0116057 0.0140964 0.0134459 0.0125557 0.0114697 0.0110933 0.0124915 0.0152051 0.0185453 0.0203009 0.0189207 0.0165131 0.0147127 0.0132778 0.012306 0.0116241 0.0112452 0.010768 0.0108964 0.0111611 0.0114556 0.0116868 0.0118854 0.0125762 0.0148803 0.0169668 0.0155819 0.0119501 0.00642006 0.0035226 0.00209878 0.0022602 0.00677629 0.0139174 0.0165731 0.0157045 0.0138831 0.0119276 0.0129776 0.0158108 0.0199298 0.0226587 0.0211454 0.0173097 0.0146648 0.0128603 0.0118275 0.0111555 0.0108419 0.0102467 0.0105084 0.0108918 0.0113122 0.0117805 0.0126385 0.0148218 0.0200109 0.0204437 0.00887922 0.00423884 0.00322001 0.00449367 0.00521473 0.00414729 0.00463593 0.00922322 0.0128988 0.0167928 0.0162941 0.0116369 0.0112891 0.0179052 0.0275191 0.0306991 0.0230488 0.014754 0.0122633 0.010975 0.0104873 0.0101886 0.0101368 0.00976398 0.0100636 0.0104919 0.0109685 0.0117024 0.0130324 0.0167519 0.0216464 0.0147149 0.00206002 0.00327099 0.00654746 0.00830998 0.00915729 0.00902078 0.00852704 0.00680585 0.00496044 0.0110129 0.0190177 0.0157961 0.0147094 0.0184699 0.0297769 0.0319335 0.0220577 0.0136199 0.0111658 0.00995124 0.00972619 0.00955128 0.0095905 0.00922036 0.00949731 0.00987265 0.0103012 0.011037 0.0123309 0.0155642 0.0170818 0.00854615 0.00487271 0.007777 0.00930885 0.0104544 0.0110697 0.0114214 0.0112172 0.00994465 0.00591657 0.00762083 0.0170213 0.0156168 0.0155436 0.0232294 0.0306211 0.0305763 0.0237343 0.0115762 0.00794635 0.00831444 0.00860758 0.00883971 0.00899522 0.00873977 0.00892485 0.00916669 0.0094761 0.00991509 0.0105634 0.0114469 0.012215 0.0109683 0.00905226 0.0104863 0.0112383 0.0119254 0.0124326 0.0129488 0.0131728 0.0127127 0.0103771 0.0103951 0.0128423 0.012178 0.0141121 0.0258475 0.0314147 0.0274034 0.0238581 0.0109217 0.00665753 0.00761371 0.00804837 0.00840838 0.00856077 0.00851388 0.00846117 0.00845248 0.00842101 0.00831804 0.00732956 0.00592448 0.00937733 0.0154872 0.0142409 0.0130197 0.0126727 0.012951 0.0133246 0.0136058 0.0137134 0.013821 0.0126685 0.0121995 0.0138701 0.0151338 0.0175772 0.022246 0.0261841 0.0201521 0.0181924 0.012444 0.00991332 0.00934116 0.00898466 0.00876331 0.00859663 0.00832771 0.00810086 0.00788526 0.00768065 0.00718574 0.00563838 0.00211232 0.00499289 0.0176219 0.0187028 0.0156374 0.0143615 0.0141211 0.0144327 0.0145979 0.0148694 0.0155792 0.0139788 0.0127259 0.0126606 0.0144949 0.0172424 0.0211435 0.0239442 0.0196588 0.0163036 0.0122445 0.01077 0.00992047 0.00933393 0.00891387 0.00858644 0.008449 0.0080598 0.00770242 0.00751351 0.0070232 0.00612177 0.00183106 0.00126521 0.0161334 0.0202328 0.0170436 0.0155566 0.0153923 0.0159509 0.016001 0.0162339 0.0165276 0.0139029 0.0124089 0.0114379 0.0139166 0.0168172 0.018918 0.019977 0.0175802 0.0160123 0.0137266 0.0124073 0.0111948 0.0102694 0.00951852 0.00893391 0.00861349 0.00810908 0.00766563 0.00738835 0.00701761 0.006312 0.00323144 -0.000221039 0.00794253 0.0179831 0.0204896 0.0187701 0.0179142 0.0186095 0.0191565 0.0216216 0.0216967 0.0108176 0.00534833 0.00816405 0.0125719 0.015636 0.0174209 0.0183987 0.0172017 0.0161145 0.0144487 0.0132353 0.0119481 0.010894 0.00997495 0.00923772 0.00894107 0.00837702 0.0079227 0.00764519 0.00748922 0.00720942 0.00603638 0.00247387 0.0036079 0.0120346 0.0167391 0.0193803 0.0225477 0.0253709 0.0257147 0.0247977 0.0184889 0.00447993 0.00128777 0.00669465 0.0116999 0.0145287 0.0160123 0.017072 0.0167084 0.016371 0.0153124 0.0142279 0.0128547 0.0116469 0.0105451 0.00966811 0.00929105 0.00872902 0.00831523 0.00808591 0.00808397 0.00824591 0.00838652 0.00749008 0.00792785 0.00941649 0.0108245 0.015456 0.0211781 0.0251426 0.0244152 0.0197513 0.0116232 0.00461318 0.00658239 0.0101624 0.0129534 0.0142952 0.0151805 0.0166742 0.0166958 0.0166272 0.0159364 0.0150474 0.0135756 0.0122498 0.011011 0.0100566 0.00960966 0.00909689 0.00874316 0.00854083 0.00855249 0.00872693 0.00916787 0.00920912 0.00971477 0.0109764 0.0117522 0.013249 0.0158981 0.0182952 0.0177419 0.0157024 0.0132936 0.010296 0.0107016 0.0120591 0.0136144 0.0140908 0.0147317 0.0163161 0.0164293 0.0169234 0.0164735 0.0156547 0.0140372 0.0125989 0.0112975 0.0103442 0.00993565 0.0094914 0.00921754 0.00907736 0.00911711 0.00928802 0.0097329 0.0100787 0.0106217 0.0111218 0.0114362 0.0123531 0.0137943 0.0151865 0.0152206 0.0143987 0.0129945 0.0117858 0.0124335 0.0133364 0.0146921 0.0134579 0.0134372 0.0166287 0.0163777 0.0164613 0.0162239 0.0162107 0.0145824 0.0129739 0.0115817 0.0106217 0.0101169 0.00979554 0.00961931 0.00953776 0.00958528 0.00970579 0.0100255 0.0103476 0.0108199 0.0113016 0.0115927 0.0119921 0.0126015 0.0133358 0.0134868 0.0133514 0.013046 0.0126754 0.0133143 0.0143463 0.0155122 0.0131314 0.0138674 0.0172533 0.0174212 0.017096 0.0154517 0.0149763 0.0139537 0.0125799 0.0114229 0.0106372 0.010381 0.0101242 0.0100172 0.00998329 0.0100456 0.0101449 0.0103706 0.0105986 0.0109289 0.0112333 0.0114795 0.0117949 0.0121878 0.0126375 0.0127778 0.0128095 0.0127238 0.0129843 0.0139394 0.0159691 0.016914 0.0134388 0.0135119 0.0153098 0.01577 0.0149482 0.0142453 0.015586 0.0153345 0.0131183 0.0117246 0.0108377 0.0105905 0.0104022 0.0103522 0.010351 0.010417 0.0104985 0.0106569 0.0108152 0.011042 0.0112633 0.0114606 0.0116684 0.0118919 0.0121614 0.0122821 0.0124199 0.012558 0.0131099 0.0141522 0.0166568 0.0180463 0.0140012 0.0125296 0.0150504 0.014879 0.0124522 0.0140085 0.0159828 0.0159899 0.0133794 0.0118606 0.010965 0.0107138 0.0106328 0.0106397 0.0106674 0.0107355 0.0108064 0.0109233 0.0110335 0.0111862 0.0113312 0.0114787 0.0116344 0.0117894 0.0119593 0.0120375 0.0121366 0.0122345 0.0126208 0.0132504 0.0146899 0.0157998 0.0144644 0.0146839 0.0179939 0.0168291 0.0133413 0.0142764 0.0146888 0.0143534 0.012569 0.011494 0.0109167 0.0109054 0.0108768 0.0109026 0.010937 0.0109962 0.0110555 0.0111449 0.01123 0.0113433 0.011452 0.0115666 0.0116813 0.0117901 0.0119069 0.0119746 0.0120706 0.0121797 0.012474 0.0129138 0.0135918 0.0146741 0.0160017 0.0146583 0.0193357 0.0165057 0.0109846 0.0148385 0.0154638 0.0136761 0.0122688 0.0114073 0.0110278 0.0110712 0.0110895 0.0111264 0.0111618 0.0112114 0.0112619 0.0113351 0.0114081 0.0115022 0.0115942 0.0116934 0.0117911 0.0118813 0.0119699 0.0120284 0.0121064 0.0122129 0.0124541 0.0128814 0.0134555 0.0146287 0.016097 0.0149728 0.0196058 0.0169155 0.0113486 0.0144564 0.014163 0.0124395 0.0117177 0.0112437 0.0110995 0.0113011 0.0113107 0.0113293 0.0113506 0.0113861 0.011429 0.0114942 0.0115659 0.011657 0.0117493 0.0118483 0.011943 0.0120291 0.0121079 0.0121664 0.0122329 0.0123282 0.0124997 0.0128218 0.0132276 0.0138551 0.0147931 0.0159744 0.0185663 0.0172205 0.013465 0.0132332 0.0126472 0.0120057 0.0116367 0.0113927 0.0113196 0.0115046 0.0114922 0.011489 0.0114956 0.0115202 0.0115599 0.0116244 0.0117021 0.0118 0.0119018 0.0120094 0.0121101 0.0121988 0.0122741 0.0123301 0.0123861 0.0124718 0.0126132 0.01291 0.0132998 0.0139394 0.0147186 0.0153496 0.0165368 0.0159343 0.0135217 0.0134309 0.0126524 0.0121349 0.0118092 0.011615 0.0115414 0.0116895 0.0116415 0.0116108 0.0116008 0.0116167 0.0116571 0.0117278 0.0118183 0.0119316 0.0120505 0.0121746 0.0122873 0.0123833 0.0124589 0.0125099 0.0125512 0.012611 0.0126993 0.0129174 0.0131847 0.0136826 0.0141961 0.0148015 0.0152787 0.0150143 0.0136951 0.0133593 0.0127135 0.0123396 0.0120566 0.0118721 0.0117657 0.0118134 0.011736 0.0116842 0.0116628 0.0116753 0.011721 0.0118027 0.0119102 0.0120438 0.0121836 0.0123279 0.0124551 0.0125585 0.0126327 0.012671 0.0126907 0.0127144 0.0127542 0.0129015 0.0130843 0.013465 0.0138085 0.0142348 0.014439 0.0143616 0.01358 0.0133466 0.0128424 0.0125311 0.0122607 0.0120637 0.0119236 
        </DataArray>
        <DataArray Name="vz" NumberOfComponents="1" type="Float32" format="ascii">
0 0 0 0 0 0 0 0 0 0 0 0 0 0 0 0 0 0 0 0 0 0 0 0 0 0 0 0 0 0 0 0 0 0 0 0 0 0 0 0 0 0 0 0 0 0 0 0 0 0 0 0 0 0 0 0 0 0 0 0 0 0 0 0 0 0 0 0 0 0 0 0 0 0 0 0 0 0 0 0 0 0 0 0 0 0 0 0 0 0 0 0 0 0 0 0 0 0 0 0 0 0 0 0 0 0 0 0 0 0 0 0 0 0 0 0 0 0 0 0 0 0 0 0 0 0 0 0 0 0 0 0 0 0 0 0 0 0 0 0 0 0 0 0 0 0 0 0 0 0 0 0 0 0 0 0 0 0 0 0 0 0 0 0 0 0 0 0 0 0 0 0 0 0 0 0 0 0 0 0 0 0 0 0 0 0 0 0 0 0 0 0 0 0 0 0 0 0 0 0 0 0 0 0 0 0 0 0 0 0 0 0 0 0 0 0 0 0 0 0 0 0 0 0 0 0 0 0 0 0 0 0 0 0 0 0 0 0 0 0 0 0 0 0 0 0 0 0 0 0 0 0 0 0 0 0 0 0 0 0 0 0 0 0 0 0 0 0 0 0 0 0 0 0 0 0 0 0 0 0 0 0 0 0 0 0 0 0 0 0 0 0 0 0 0 0 0 0 0 0 0 0 0 0 0 0 0 0 0 0 0 0 0 0 0 0 0 0 0 0 0 0 0 0 0 0 0 0 0 0 0 0 0 0 0 0 0 0 0 0 0 0 0 0 0 0 0 0 0 0 0 0 0 0 0 0 0 0 0 0 0 0 0 0 0 0 0 0 0 0 0 0 0 0 0 0 0 0 0 0 0 0 0 0 0 0 0 0 0 0 0 0 0 0 0 0 0 0 0 0 0 0 0 0 0 0 0 0 0 0 0 0 0 0 0 0 0 0 0 0 0 0 0 0 0 0 0 0 0 0 0 0 0 0 0 0 0 0 0 0 0 0 0 0 0 0 0 0 0 0 0 0 0 0 0 0 0 0 0 0 0 0 0 0 0 0 0 0 0 0 0 0 0 0 0 0 0 0 0 0 0 0 0 0 0 0 0 0 0 0 0 0 0 0 0 0 0 0 0 0 0 0 0 0 0 0 0 0 0 0 0 0 0 0 0 0 0 0 0 0 0 0 0 0 0 0 0 0 0 0 0 0 0 0 0 0 0 0 0 0 0 0 0 0 0 0 0 0 0 0 0 0 0 0 0 0 0 0 0 0 0 0 0 0 0 0 0 0 0 0 0 0 0 0 0 0 0 0 0 0 0 0 0 0 0 0 0 0 0 0 0 0 0 0 0 0 0 0 0 0 0 0 0 0 0 0 0 0 0 0 0 0 0 0 0 0 0 0 0 0 0 0 0 0 0 0 0 0 0 0 0 0 0 0 0 0 0 0 0 0 0 0 0 0 0 0 0 0 0 0 0 0 0 0 0 0 0 0 0 0 0 0 0 0 0 0 0 0 0 0 0 0 0 0 0 0 0 0 0 0 0 0 0 0 0 0 0 0 0 0 0 0 0 0 0 0 0 0 0 0 0 0 0 0 0 0 0 0 0 0 0 0 0 0 0 0 0 0 0 0 0 0 0 0 0 0 0 0 0 0 0 0 0 0 0 0 0 0 0 0 0 0 0 0 0 0 0 0 0 0 0 0 0 0 0 0 0 0 0 0 0 0 0 0 0 0 0 0 0 0 0 0 0 0 0 0 0 0 0 0 0 0 0 0 0 0 0 0 0 0 0 0 0 0 0 0 0 0 0 0 0 0 0 0 0 0 0 0 0 0 0 0 0 0 0 0 0 0 0 0 0 0 0 0 0 0 0 0 0 0 0 0 0 0 0 0 0 0 0 0 0 0 0 0 0 0 0 0 0 0 0 0 0 0 0 0 0 0 0 0 0 0 0 0 0 0 0 0 0 0 0 0 0 0 0 0 0 0 0 0 0 0 0 0 0 0 0 0 0 0 0 0 0 0 0 0 0 0 0 0 0 0 0 0 0 0 0 0 0 0 0 0 0 0 0 0 0 0 0 0 0 0 0 0 0 0 0 0 0 0 0 0 0 0 0 0 0 0 0 0 0 0 0 0 0 0 0 0 0 0 0 0 0 0 0 0 0 0 0 0 0 0 0 0 0 0 0 0 0 0 0 0 0 0 0 0 0 0 0 0 0 0 0 0 0 0 0 0 0 0 0 0 0 0 0 0 0 0 0 0 0 0 0 0 0 0 0 0 0 0 0 0 0 0 0 0 0 0 0 0 0 0 0 0 
        </DataArray>
        <DataArray Name="p" NumberOfComponents="1" type="Float32" format="ascii">