<?xml version="1.0"?>
<VTKFile type="StructuredGrid" version="0.1" byte_order="LittleEndian">
  <StructuredGrid WholeExtent="0 32 0 32 0 1">
    <Piece Extent="0 32 0 32 0 1">
      <PointData>
      </PointData>
      <CellData>
        <DataArray Name="vx" NumberOfComponents="1" type="Float32" format="ascii">
0.0201933 0.0201132 0.0200496 0.0199949 0.0199436 0.0198928 0.0198362 0.0197799 0.0197185 0.0196602 0.0196081 0.0195572 0.0195248 0.0194904 0.0194777 0.019465 0.0194875 0.019529 0.019635 0.0197836 0.0199815 0.0202332 0.0204667 0.0206186 0.0208008 0.0208371 0.020846 0.0208444 0.0206899 0.0205774 0.0204172 0.0202982 0.019964 0.0199213 0.0198894 0.01986 0.0198264 0.0197897 0.0197424 0.0196992 0.0196521 0.0196186 0.0196007 0.0195898 0.0196123 0.0196324 0.0196729 0.0197076 0.0197606 0.0198379 0.0199668 0.0201287 0.02032 0.0205169 0.020678 0.020756 0.0207975 0.0207331 0.0206273 0.0205222 0.0203538 0.0202333 0.0201094 0.0200263 0.0197205 0.0197059 0.0196956 0.0196794 0.0196494 0.0196126 0.0195611 0.0195257 0.0194947 0.0195003 0.0195418 0.0196035 0.0197194 0.0198264 0.0199466 0.0200439 0.0201307 0.0202399 0.0203887 0.020568 0.0207564 0.0209211 0.0210125 0.0209989 0.0208974 0.0206983 0.0204675 0.0202575 0.0200531 0.0199121 0.019808 0.0197498 0.0194653 0.0194722 0.0194736 0.0194574 0.0194148 0.0193621 0.0192916 0.0192619 0.0192467 0.0193083 0.0194276 0.0195799 0.0198371 0.0200834 0.0203374 0.0205224 0.0206352 0.0207724 0.0209439 0.0211456 0.0213371 0.0214756 0.0214872 0.0213534 0.0210752 0.020697 0.0203207 0.0199977 0.0197482 0.0195873 0.0195005 0.0194658 0.0191798 0.0192064 0.0192126 0.0191836 0.0191101 0.0190236 0.0189208 0.0188987 0.0189063 0.0190382 0.019257 0.0195463 0.0200119 0.0204549 0.020893 0.0211991 0.0213351 0.0214646 0.0216344 0.021844 0.0220315 0.0221414 0.0220599 0.0217903 0.0213154 0.0207151 0.0201603 0.0197089 0.0194036 0.0192242 0.0191566 0.0191497 0.0188976 0.0189476 0.0189566 0.0189083 0.0187952 0.0186698 0.01853 0.0185218 0.0184957 0.0186417 0.0188588 0.0191842 0.0199633 0.0208274 0.0217103 0.0222379 0.0223047 0.0223443 0.0224639 0.0226479 0.0228372 0.0229265 0.0227248 0.0222446 0.0214563 0.0205332 0.0197904 0.0192535 0.018944 0.0187967 0.0187822 0.0188258 0.0185943 0.0186847 0.0187069 0.018645 0.0184956 0.0183303 0.0181434 0.0180663 0.0177975 0.0176127 0.0175462 0.0179703 0.0193818 0.021075 0.0228299 0.0239546 0.0240529 0.0237473 0.0235385 0.0234801 0.0235412 0.0235607 0.0231947 0.0225291 0.0214528 0.0201458 0.0191813 0.0185896 0.0183195 0.0182548 0.018332 0.0184582 0.0183806 0.0185305 0.0185869 0.018536 0.0183789 0.0181793 0.0178607 0.0174445 0.0162002 0.015045 0.0141407 0.0142165 0.0168971 0.0208475 0.024966 0.0272815 0.0271043 0.0261264 0.0252091 0.024472 0.024234 0.0242316 0.0237117 0.0226928 0.0209535 0.0189505 0.0178634 0.0174728 0.0174577 0.0176383 0.0178953 0.0181549 0.0181835 0.018436 0.0185727 0.0185819 0.0184603 0.0181942 0.017576 0.0161415 0.0129628 0.00964489 0.00820287 0.0101699 0.015158 0.020856 0.0264742 0.0309003 0.0321054 0.0303347 0.0280497 0.0258317 0.0245989 0.0242795 0.0234726 0.022426 0.0204433 0.017652 0.01626 0.0161139 0.0164177 0.016907 0.0173911 0.0178293 0.0182475 0.0186055 0.0188576 0.0189811 0.018966 0.0185965 0.0174777 0.0145436 0.00870133 0.00638 0.0102008 0.0162839 0.0202927 0.0212006 0.0218703 0.0256975 0.0301347 0.0314598 0.0306875 0.0273004 0.0250098 0.0248678 0.0239203 0.0219364 0.0182215 0.0140734 0.0134467 0.0144963 0.0154916 0.016456 0.0171812 0.0177844 0.0183219 0.0188346 0.0192657 0.0196074 0.0198235 0.0195777 0.0185654 0.0151588 0.0117628 0.0184199 0.0272456 0.0284735 0.025627 0.0213012 0.0167567 0.0137759 0.0153065 0.0217341 0.0280705 0.0269797 0.0234267 0.0215028 0.0194635 0.0171352 0.01275 0.0100992 0.0112044 0.0131742 0.0147854 0.0160749 0.0169737 0.0177304 0.0187981 0.019378 0.0199862 0.0205986 0.0213035 0.021541 0.0221605 0.0204452 0.0255037 0.0330993 0.0326864 0.0297941 0.0250535 0.0210521 0.0169427 0.0123614 0.010335 0.0119298 0.0188787 0.0218686 0.0189199 0.0170186 0.0159913 0.0128315 0.010213 0.0110134 0.0117508 0.014123 0.0156272 0.0168301 0.0175669 0.0182328 0.0190813 0.0197674 0.0205411 0.0215185 0.0226435 0.0242336 0.0265629 0.0314778 0.0371716 0.0357743 0.0308235 0.0269884 0.0234503 0.0205421 0.0176768 0.0145925 0.0115471 0.00859725 0.00687186 0.0108435 0.0144505 0.0176617 0.0179589 0.0114474 0.0119468 0.01407 0.0142708 0.0158073 0.0163987 0.0173502 0.0178805 0.0185083 0.0196342 0.0202288 0.0210291 0.0221821 0.0236955 0.0262374 0.0305362 0.0389966 0.0407175 0.0335668 0.0288507 0.0253366 0.0225456 0.0201808 0.0180083 0.0160008 0.0138753 0.0111889 0.00802779 0.00893248 0.0111685 0.00956904 0.0107186 0.0103013 0.0125595 0.0186852 0.0201316 0.0193939 0.0191104 0.0189528 0.0190192 0.0192515 0.0197881 0.0202898 0.0210022 0.0220736 0.0233954 0.0257433 0.0291165 0.0360808 0.0380267 0.0320387 0.0276409 0.0243915 0.0219312 0.0197798 0.0178063 0.0162488 0.0144238 0.0122818 0.00987372 0.0101357 0.0116105 0.00967049 0.00952463 0.0130926 0.0165677 0.0200035 0.0217053 0.0208848 0.0201643 0.0195978 0.0194593 0.0195183 0.019947 0.0202195 0.0206518 0.0213808 0.0220755 0.0234396 0.024273 0.0286307 0.0331709 0.0307225 0.0271598 0.0241877 0.021621 0.019183 0.0167022 0.0146293 0.0119085 0.00971344 0.00648866 0.00731286 0.0118241 0.0133606 0.0143195 0.0189918 0.0225614 0.0227194 0.0229995 0.0219787 0.0211671 0.0204278 0.020074 0.0198959 0.0198719 0.019945 0.0201573 0.0205185 0.0209097 0.0213707 0.0214151 0.0224581 0.0293015 0.0326011 0.0290676 0.0252129 0.0217946 0.0186654 0.0153073 0.0122292 0.00775428 0.00573669 0.00814333 0.0117612 0.0149324 0.0166055 0.017851 0.0215258 0.0243201 0.024301 0.0237064 0.0224316 0.0215586 0.0207434 0.0202693 0.0199644 0.0198022 0.0196697 0.0196347 0.0195804 0.0196492 0.0191149 0.0187477 0.0152122 0.0189038 0.0274487 0.0288042 0.0268488 0.0226908 0.0175627 0.0118212 0.00711697 0.00366439 0.00549341 0.0132368 0.0175658 0.0178856 0.0192048 0.0204247 0.0227055 0.0242109 0.024122 0.0235496 0.0225318 0.021716 0.0209402 0.0204144 0.020027 0.0196721 0.0193927 0.0191307 0.0187535 0.0183597 0.0173561 0.0157897 0.0110838 0.0066674 0.00919459 0.016635 0.0210816 0.0198372 0.0160956 0.0119797 0.0102623 0.0137061 0.0206694 0.023372 0.0221948 0.0209414 0.021176 0.0220068 0.0234011 0.0243171 0.0242063 0.0234849 0.0224885 0.0216364 0.0208982 0.0203746 0.0199732 0.0196525 0.0193078 0.01893 0.0184096 0.0178712 0.0169386 0.0156474 0.012602 0.00732691 0.00537245 0.00771103 0.0116942 0.0162083 0.0197743 0.0238083 0.0282698 0.0331753 0.0338191 0.0289065 0.0246459 0.0223559 0.0219028 0.0223416 0.0231139 0.0238421 0.0237365 0.0229011 0.022034 0.0212896 0.0207143 0.0202998 0.0199626 0.0196506 0.0193018 0.0188678 0.018284 0.017659 0.0168332 0.0159394 0.0144183 0.0119704 0.0105367 0.0101185 0.0115687 0.0157213 0.0214482 0.0273662 0.0313231 0.032873 0.0303485 0.0259676 0.0232887 0.0215789 0.0210297 0.0214181 0.0220326 0.023067 0.0230513 0.0220229 0.0213284 0.0207573 0.0203807 0.0201324 0.019916 0.019822 0.0194938 0.0190556 0.0184815 0.0178574 0.0171267 0.0164212 0.0156239 0.0144706 0.0138992 0.0139377 0.0147966 0.0169298 0.0203498 0.0239176 0.0259226 0.0266369 0.0256485 0.023575 0.0220757 0.0205131 0.0202019 0.0204781 0.0205534 0.0217564 0.0214226 0.0201142 0.0200725 0.0201779 0.0201351 0.0201224 0.0200317 0.0199596 0.0196895 0.0192934 0.018776 0.0182068 0.017579 0.0170081 0.0165184 0.0160332 0.0159048 0.0159842 0.0165026 0.0176627 0.0194839 0.0214363 0.0227145 0.0232488 0.0228486 0.0217251 0.0208293 0.0192977 0.0192414 0.0193576 0.0183135 0.0170964 0.0168649 0.0179869 0.018963 0.0197658 0.0198636 0.0200482 0.0200813 0.0203605 0.0200534 0.0196586 0.0191827 0.018674 0.0181374 0.0176466 0.0172589 0.016957 0.0169401 0.0171063 0.0175086 0.0181677 0.0191315 0.0201671 0.020898 0.0212896 0.0212193 0.020625 0.0198741 0.0186221 0.0174801 0.0174101 0.0180367 0.0179221 0.0193669 0.0204667 0.0205433 0.0211011 0.0207113 0.0206817 0.0205581 0.0205319 0.0202651 0.0199258 0.0195203 0.0190957 0.0186603 0.0182631 0.017948 0.0177212 0.017687 0.0177783 0.0180355 0.0184398 0.0190045 0.019607 0.0200552 0.0203072 0.0202642 0.0199838 0.0196106 0.0189269 0.0166302 0.0166297 0.0185347 0.0182546 0.0193646 0.0191185 0.0188629 0.0201635 0.0203696 0.0206752 0.0206529 0.0208568 0.0205452 0.0202061 0.0198352 0.0194687 0.0191085 0.0187831 0.0185193 0.0183233 0.0182563 0.0182832 0.0184215 0.0186407 0.0189408 0.0192669 0.0195054 0.0196977 0.0197164 0.0198881 0.0198599 0.0208596 0.0183664 0.0171484 0.0196337 0.0205524 0.0221453 0.02231 0.0213251 0.0208919 0.0211239 0.0212096 0.021069 0.0209854 0.0206667 0.0203552 0.020034 0.0197301 0.0194401 0.0191804 0.0189644 0.0187948 0.0187036 0.0186712 0.01871 0.018799 0.0189271 0.0190711 0.0191445 0.0192147 0.0191395 0.0192806 0.0192356 0.0203394 0.0198553 0.0185174 0.0197603 0.0232731 0.0248499 0.0232643 0.02224 0.0215496 0.0215696 0.0214928 0.021246 0.0210294 0.0207298 0.020445 0.0201665 0.0199119 0.0196752 0.0194645 0.0192846 0.0191353 0.0190325 0.0189651 0.0189388 0.0189423 0.0189636 0.0190055 0.0190113 0.0190607 0.01909 0.0193034 0.0198239 0.0206183 0.0236471 0.0240723 0.0211415 0.0187435 0.0172983 0.0188331 0.02042 0.0210194 0.0215323 0.0214902 0.0212989 0.0209765 0.0206956 0.020446 0.0202154 0.0200108 0.0198235 0.0196558 0.0195083 0.0193787 0.0192743 0.0191887 0.019124 0.0190768 0.0190335 0.0190071 0.0189507 0.0189361 0.0189078 0.0190051 0.0193417 0.0196913 0.0217531 0.022045 0.0202848 0.0183524 0.017141 0.0193882 0.0212038 0.0215812 0.0217735 0.0215408 0.0212722 0.0208341 0.0206009 0.0203979 0.0202157 0.020056 0.0199106 0.0197781 0.0196575 0.0195454 0.0194454 0.0193546 0.0192726 0.0192028 0.0191327 0.0190829 0.0190171 0.0190013 0.0189875 0.0190771 0.0193091 0.0195198 0.020267 0.0204335 0.0202191 0.0202023 0.0200872 0.0210342 0.0216477 0.0216238 0.0216142 0.0213426 0.0210954 0.0206391 0.0204578 0.0203047 0.020171 0.0200544 0.0199473 0.0198464 0.0197507 0.0196566 0.0195665 0.0194802 0.019396 0.019322 0.0192455 0.0191894 0.0191238 0.0191044 0.0190912 0.0191674 0.0193424 0.0195575 0.0200646 0.0203506 0.0204348 0.0207874 0.0208335 0.0212114 0.021544 0.0214193 0.0213321 0.0210713 0.0208544 0.0204214 0.0202945 0.0201895 0.0200989 0.0200186 0.0199433 0.0198677 0.0197933 0.0197155 0.0196385 0.0195638 0.0194888 0.0194266 0.0193627 0.0193213 0.0192779 0.0192782 0.0192919 0.0193823 0.0195315 0.0197342 0.0200574 0.0203386 0.0205328 0.0208381 0.0209469 0.0211019 0.0212075 0.0210558 0.0209476 0.0207406 0.0205774 
        </DataArray>
        <DataArray Name="vy" NumberOfComponents="1" type="Float32" format="ascii">
0.0120206 0.0119158 0.0118453 0.0118116 0.0118149 0.0118521 0.011923 0.0120131 0.0121258 0.0122336 0.0123472 0.0124376 0.0125125 0.0125635 0.0125883 0.012593 0.0125917 0.0125864 0.012641 0.0127246 0.0128904 0.013085 0.0132368 0.013383 0.0134532 0.0133642 0.0132992 0.0130083 0.0127958 0.0125382 0.0123369 0.0121601 0.0120908 0.0119687 0.011888 0.0118508 0.0118549 0.0118953 0.0119704 0.0120602 0.0121731 0.0122709 0.0123792 0.0124561 0.0125227 0.0125656 0.01258 0.0125715 0.012544 0.0125019 0.0125126 0.0125553 0.0126998 0.0128747 0.0130841 0.0132531 0.0134049 0.0133728 0.0133505 0.0131262 0.0129287 0.0126737 0.0124539 0.012253 0.0121229 0.0119892 0.0119062 0.011874 0.0118869 0.0119362 0.0120179 0.0121034 0.0122123 0.0122843 0.0123803 0.012424 0.0124693 0.0125002 0.0125107 0.0125061 0.0124606 0.0123817 0.0123533 0.0123689 0.0125132 0.0127163 0.0130089 0.0132544 0.0134879 0.0135193 0.0135008 0.0132933 0.0130714 0.0127908 0.0125368 0.0123065 0.0121372 0.0119953 0.0119163 0.0118962 0.0119228 0.0119798 0.0120588 0.0121206 0.0122009 0.0122176 0.012278 0.0122712 0.0123014 0.0123357 0.0123645 0.0123867 0.0123488 0.0122467 0.0121854 0.0121891 0.0123494 0.0126153 0.0130101 0.0133684 0.0137057 0.0138053 0.0137814 0.0135513 0.0132675 0.0129275 0.0126164 0.0123452 0.0121131 0.0119778 0.011921 0.0119317 0.0119872 0.0120589 0.0121293 0.0121465 0.0121817 0.0120982 0.0121228 0.0120063 0.0119644 0.0119854 0.0120687 0.0122066 0.0122105 0.0120709 0.0119751 0.0119739 0.0121786 0.012567 0.0131343 0.0136743 0.0141466 0.0142832 0.0141912 0.0138709 0.0134713 0.0130367 0.0126514 0.0123374 0.0120862 0.0119646 0.0119418 0.0119951 0.012084 0.0121597 0.012187 0.0121242 0.012069 0.0118607 0.011777 0.0114944 0.0114035 0.0114497 0.011631 0.0119342 0.0120873 0.0119578 0.0118109 0.0118125 0.012056 0.0125954 0.0133554 0.014101 0.014761 0.0149644 0.0147758 0.0143198 0.0137538 0.0131851 0.0126978 0.0123286 0.0119841 0.0119125 0.0119604 0.0120905 0.0122345 0.0123214 0.0122961 0.0121701 0.0120924 0.0117103 0.0116239 0.0108892 0.0103045 0.0101898 0.0106566 0.011635 0.0121151 0.0119084 0.0116518 0.0115917 0.0118775 0.0126772 0.0138342 0.0149543 0.0158722 0.015975 0.0154563 0.0147235 0.0139101 0.0131895 0.012609 0.0122116 0.0118706 0.0118565 0.0119858 0.0122007 0.0124 0.0125 0.0124572 0.0124731 0.0125396 0.012163 0.0114186 0.00957933 0.00833592 0.00801313 0.00876801 0.0106405 0.012277 0.0125081 0.0120816 0.0118809 0.011991 0.0129629 0.014381 0.0157753 0.0171016 0.0172498 0.0163097 0.015211 0.0140945 0.013197 0.0125094 0.0120809 0.0115928 0.0116947 0.0119512 0.0122938 0.0125949 0.0128319 0.0130332 0.0137872 0.0145129 0.0136422 0.0126185 0.00821291 0.00354066 0.00194451 0.00425446 0.00972576 0.0133505 0.0137825 0.0132458 0.0125309 0.0120501 0.0131656 0.0155093 0.0176639 0.0196769 0.0191127 0.0168871 0.0151475 0.0137 0.0127366 0.0120624 0.0117072 0.0112822 0.0114784 0.011847 0.0123112 0.0127885 0.0133909 0.0145205 0.0171893 0.0190701 0.0174133 0.0107048 0.0021197 -0.00220961 -0.00311889 -0.00136174 0.00451816 0.0126791 0.0167171 0.0165687 0.0155562 0.0135904 0.0141218 0.016224 0.0185098 0.0218623 0.0215187 0.0178236 0.0151155 0.0133056 0.0122721 0.0116106 0.0113179 0.0107437 0.0110683 0.0115603 0.0121836 0.0129475 0.0143218 0.0169579 0.022435 0.0224292 0.0112652 0.00287057 -0.00132518 -0.000889172 0.000309653 0.000239448 0.00190166 0.0077144 0.0128266 0.0173302 0.0180907 0.0142806 0.0141401 0.019321 0.0227224 0.027798 0.0238683 0.0163258 0.0131534 0.0116703 0.0110348 0.0106855 0.0106141 0.0102008 0.0105543 0.0110844 0.0117614 0.0128214 0.0146943 0.0189711 0.0241752 0.0160522 0.00250316 0.00103585 0.00300724 0.00452541 0.00552054 0.00575789 0.00563689 0.00494742 0.00426719 0.0111116 0.0206602 0.0191635 0.0180456 0.0202231 0.0250879 0.0292961 0.0228787 0.0148651 0.0114904 0.0103711 0.0101289 0.0099722 0.0100099 0.00956691 0.00986493 0.0103138 0.0108862 0.0119144 0.0136024 0.0175458 0.0197094 0.00941576 0.00400471 0.00571805 0.00687993 0.00798452 0.00862982 0.00902578 0.00879891 0.0077656 0.00452655 0.00718293 0.0181358 0.017976 0.0175473 0.0231893 0.0293593 0.0291594 0.0221818 0.0135498 0.00939243 0.00904714 0.00911295 0.00925173 0.00935712 0.00896446 0.0091153 0.00934953 0.00965242 0.0101279 0.0107068 0.0117982 0.0134875 0.0115762 0.00912147 0.00984766 0.01036 0.0108783 0.0112473 0.0116262 0.0116508 0.0109921 0.0087554 0.00860784 0.0136175 0.0135596 0.0150185 0.0250692 0.0319618 0.0265559 0.019685 0.0135616 0.00894883 0.00864577 0.00864197 0.00880588 0.00884745 0.00856507 0.00845063 0.00836569 0.00822739 0.00794278 0.00680485 0.00527074 0.00884692 0.0153993 0.0153761 0.0139058 0.0132164 0.013139 0.0132046 0.0132133 0.0129655 0.0125688 0.010644 0.00941831 0.0144806 0.0166178 0.0179439 0.0224198 0.0283389 0.0204664 0.0148791 0.0131573 0.0103951 0.00961222 0.00918639 0.00892831 0.00870563 0.0082307 0.00791959 0.00759056 0.00723413 0.0065031 0.00482622 0.00153334 0.00429101 0.0157797 0.0195239 0.0175339 0.0161084 0.0154882 0.0153922 0.0151966 0.0150561 0.015148 0.0133297 0.0113368 0.0115838 0.0143052 0.0169224 0.0210643 0.0249162 0.0191755 0.014764 0.0122027 0.0107797 0.00999613 0.00940994 0.00894986 0.00856274 0.00821739 0.00771804 0.00720166 0.0067687 0.00590928 0.004503 8.9816e-05 -0.000196643 0.0130891 0.0220017 0.0203773 0.0188374 0.0181368 0.018124 0.0177536 0.0175495 0.0174287 0.0151657 0.0125704 0.00802762 0.011352 0.0152659 0.0179228 0.0198665 0.0169601 0.0150967 0.0133793 0.012187 0.0110831 0.0101949 0.00941984 0.00878472 0.0082806 0.00765564 0.00703983 0.00649941 0.00571048 0.00436949 0.000574792 -0.00307663 0.00481365 0.0197002 0.0248083 0.0234283 0.0219336 0.0218493 0.0216269 0.0225984 0.0218105 0.013072 0.00566779 0.0045607 0.00968216 0.0137802 0.0162235 0.017758 0.0164046 0.0154465 0.0140556 0.0129851 0.0117695 0.0107367 0.00978561 0.00899318 0.00855097 0.00787376 0.00726755 0.00677072 0.00630063 0.00551967 0.00377155 -0.000104237 0.00130818 0.0123884 0.0204454 0.0249913 0.0274923 0.0291864 0.02837 0.0254818 0.0187194 0.00563687 6.74838e-05 0.00372126 0.00921295 0.0126766 0.0147117 0.0160386 0.0157973 0.0157999 0.014935 0.0139526 0.0126419 0.0114324 0.0102987 0.00936277 0.00887766 0.00821318 0.0076738 0.00728018 0.0070665 0.00692247 0.00672939 0.00565796 0.00654079 0.00975069 0.0134207 0.0205778 0.0263329 0.0294103 0.0272285 0.0207456 0.0122204 0.00386098 0.00407555 0.00739486 0.0107303 0.0126446 0.0140343 0.0151395 0.0155209 0.016272 0.0158145 0.014855 0.0134278 0.0120337 0.0107523 0.00972404 0.00918073 0.00858959 0.00814957 0.00784702 0.00775016 0.00779756 0.0081336 0.00820061 0.0090633 0.0114518 0.0135861 0.0166027 0.0198985 0.0220132 0.0202009 0.0163928 0.012905 0.00931252 0.00903367 0.0102355 0.0118788 0.0125918 0.0136659 0.014691 0.0153649 0.016749 0.0166009 0.0154576 0.013917 0.0123515 0.0110105 0.00997823 0.00951208 0.00901347 0.00868733 0.00849441 0.00848975 0.00863778 0.0091029 0.00958212 0.0104577 0.0116848 0.0128106 0.0146608 0.0164196 0.017616 0.0169844 0.0151218 0.0130411 0.0110717 0.0111903 0.0119307 0.0130615 0.0127167 0.0130505 0.0131631 0.0139818 0.0175675 0.0177467 0.0161521 0.0145144 0.0126991 0.0112774 0.0102399 0.00969017 0.00934314 0.00914797 0.00905258 0.00910049 0.00925533 0.00965352 0.0101499 0.0108948 0.0118678 0.0126557 0.0135733 0.0143966 0.0150028 0.0147361 0.0139343 0.0131297 0.0123071 0.0125123 0.0132874 0.0138213 0.0125094 0.0135328 0.0139185 0.0148099 0.0182981 0.0177434 0.0149786 0.013816 0.0122586 0.0110741 0.0102289 0.00993831 0.00969982 0.00960646 0.00958853 0.00967825 0.00983651 0.0101554 0.0105495 0.0110991 0.0117363 0.0122937 0.0129196 0.0134239 0.0137866 0.0136844 0.0133076 0.0128683 0.0126681 0.013172 0.0143841 0.01441 0.0127192 0.0140252 0.0148263 0.0152857 0.0164991 0.0164976 0.0141042 0.013996 0.012407 0.0111715 0.0103584 0.0101753 0.0100276 0.0100063 0.0100362 0.0101424 0.0102894 0.0105384 0.010839 0.0112359 0.0116896 0.0120921 0.0124896 0.0127874 0.0130085 0.0129858 0.0128793 0.0127971 0.0130561 0.0138362 0.0156368 0.0162486 0.0139958 0.0125687 0.0134218 0.0137452 0.0153253 0.0171461 0.0135712 0.0138766 0.0124955 0.0112358 0.0104957 0.010359 0.0103204 0.0103611 0.0104262 0.0105385 0.0106717 0.0108675 0.0110904 0.0113703 0.0116755 0.0119611 0.0122402 0.0124468 0.012599 0.0126069 0.0125942 0.0126122 0.0129567 0.0136865 0.0153592 0.0168952 0.015853 0.0115226 0.0137331 0.0141893 0.0156866 0.0168568 0.0129827 0.0128593 0.011893 0.0109837 0.0105188 0.0106823 0.0106638 0.010707 0.0107696 0.0108657 0.0109761 0.0111287 0.0112986 0.0115041 0.0117225 0.0119299 0.0121255 0.012272 0.0123877 0.0124269 0.0124798 0.0125909 0.0129361 0.0136588 0.0148307 0.0172554 0.0185364 0.0105093 0.0103314 0.00953132 0.0156466 0.0174662 0.0154927 0.0136568 0.0121975 0.0112359 0.0108241 0.0109424 0.0109538 0.0109988 0.0110552 0.0111339 0.0112237 0.0113439 0.0114766 0.0116339 0.0117974 0.011957 0.0121067 0.0122239 0.0123193 0.0123712 0.0124401 0.012571 0.0128656 0.0134822 0.0143011 0.0161517 0.0174883 0.0117077 0.010496 0.00884061 0.0165811 0.017455 0.0153778 0.0131696 0.0119739 0.0112689 0.0110204 0.0112476 0.0112459 0.0112668 0.0113004 0.0113548 0.0114234 0.011519 0.0116278 0.0117572 0.0118911 0.0120242 0.0121477 0.0122484 0.0123313 0.0123866 0.0124491 0.0125508 0.0127425 0.0130946 0.0135482 0.014104 0.0148193 0.0134866 0.0140948 0.013025 0.015475 0.0148797 0.0135199 0.0125117 0.0118468 0.0114597 0.0113049 0.0115134 0.011486 0.0114806 0.0114926 0.0115271 0.0115801 0.0116596 0.0117544 0.0118685 0.0119869 0.0121068 0.0122172 0.0123101 0.0123862 0.0124425 0.0124999 0.0125903 0.0127423 0.0130228 0.0134014 0.0138079 0.0143803 0.0136166 0.0140851 0.0135948 0.0140914 0.0140042 0.0131672 0.0125223 0.0120257 0.0117297 0.0115855 0.0117404 0.0116834 0.0116506 0.0116413 0.0116591 0.0117012 0.011772 0.0118607 0.0119695 0.0120818 0.0121968 0.0123002 0.0123876 0.0124561 0.0125048 0.0125441 0.012601 0.0126846 0.012856 0.0130882 0.0133591 0.0137463 0.0136643 0.0139682 0.0137671 0.0137817 0.0135353 0.0129433 0.0125499 0.0121948 0.0119747 0.0118324 0.0119062 0.0118228 0.0117684 0.0117442 0.0117518 0.0117887 0.0118568 0.0119443 0.0120529 0.0121629 0.0122765 0.0123749 0.0124576 0.0125187 0.0125577 0.0125811 0.0126124 0.0126545 0.0127687 0.0129238 0.013135 0.0133991 0.0134269 0.0135947 0.0135611 0.0134428 0.0133633 0.0129569 0.0126841 0.0123883 0.0121834 0.0120235 
        </DataArray>
        <DataArray Name="vz" NumberOfComponents="1" type="Float32" format="ascii">
0 0 0 0 0 0 0 0 0 0 0 0 0 0 0 0 0 0 0 0 0 0 0 0 0 0 0 0 0 0 0 0 0 0 0 0 0 0 0 0 0 0 0 0 0 0 0 0 0 0 0 0 0 0 0 0 0 0 0 0 0 0 0 0 0 0 0 0 0 0 0 0 0 0 0 0 0 0 0 0 0 0 0 0 0 0 0 0 0 0 0 0 0 0 0 0 0 0 0 0 0 0 0 0 0 0 0 0 0 0 0 0 0 0 0 0 0 0 0 0 0 0 0 0 0 0 0 0 0 0 0 0 0 0 0 0 0 0 0 0 0 0 0 0 0 0 0 0 0 0 0 0 0 0 0 0 0 0 0 0 0 0 0 0 0 0 0 0 0 0 0 0 0 0 0 0 0 0 0 0 0 0 0 0 0 0 0 0 0 0 0 0 0 0 0 0 0 0 0 0 0 0 0 0 0 0 0 0 0 0 0 0 0 0 0 0 0 0 0 0 0 0 0 0 0 0 0 0 0 0 0 0 0 0 0 0 0 0 0 0 0 0 0 0 0 0 0 0 0 0 0 0 0 0 0 0 0 0 0 0 0 0 0 0 0 0 0 0 0 0 0 0 0 0 0 0 0 0 0 0 0 0 0 0 0 0 0 0 0 0 0 0 0 0 0 0 0 0 0 0 0 0 0 0 0 0 0 0 0 0 0 0 0 0 0 0 0 0 0 0 0 0 0 0 0 0 0 0 0 0 0 0 0 0 0 0 0 0 0 0 0 0 0 0 0 0 0 0 0 0 0 0 0 0 0 0 0 0 0 0 0 0 0 0 0 0 0 0 0 0 0 0 0 0 0 0 0 0 0 0 0 0 0 0 0 0 0 0 0 0 0 0 0 0 0 0 0 0 0 0 0 0 0 0 0 0 0 0 0 0 0 0 0 0 0 0 0 0 0 0 0 0 0 0 0 0 0 0 0 0 0 0 0 0 0 0 0 0 0 0 0 0 0 0 0 0 0 0 0 0 0 0 0 0 0 0 0 0 0 0 0 0 0 0 0 0 0 0 0 0 0 0 0 0 0 0 0 0 0 0 0 0 0 0 0 0 0 0 0 0 0 0 0 0 0 0 0 0 0 0 0 0 0 0 0 0 0 0 0 0 0 0 0 0 0 0 0 0 0 0 0 0 0 0 0 0 0 0 0 0 0 0 0 0 0 0 0 0 0 0 0 0 0 0 0 0 0 0 0 0 0 0 0 0 0 0 0 0 0 0 0 0 0 0 0 0 0 0 0 0 0 0 0 0 0 0 0 0 0 0 0 0 0 0 0 0 0 0 0 0 0 0 0 0 0 0 0 0 0 0 0 0 0 0 0 0 0 0 0 0 0 0 0 0 0 0 0 0 0 0 0 0 0 0 0 0 0 0 0 0 0 0 0 0 0 0 0 0 0 0 0 0 0 0 0 0 0 0 0 0 0 0 0 0 0 0 0 0 0 0 0 0 0 0 0 0 0 0 0 0 0 0 0 0 0 0 0 0 0 0 0 0 0 0 0 0 0 0 0 0 0 0 0 0 0 0 0 0 0 0 0 0 0 0 0 0 0 0 0 0 0 0 0 0 0 0 0 0 0 0 0 0 0 0 0 0 0 0 0 0 0 0 0 0 0 0 0 0 0 0 0 0 0 0 0 0 0 0 0 0 0 0 0 0 0 0 0 0 0 0 0 0 0 0 0 0 0 0 0 0 0 0 0 0 0 0 0 0 0 0 0 0 0 0 0 0 0 0 0 0 0 0 0 0 0 0 0 0 0 0 0 0 0 0 0 0 0 0 0 0 0 0 0 0 0 0 0 0 0 0 0 0 0 0 0 0 0 0 0 0 0 0 0 0 0 0 0 0 0 0 0 0 0 0 0 0 0 0 0 0 0 0 0 0 0 0 0 0 0 0 0 0 0 0 0 0 0 0 0 0 0 0 0 0 0 0 0 0 0 0 0 0 0 0 0 0 0 0 0 0 0 0 0 0 0 0 0 0 0 0 0 0 0 0 0 0 0 0 0 0 0 0 0 0 0 0 0 0 0 0 0 0 0 0 0 0 0 0 0 0 0 0 0 0 0 0 0 0 0 0 0 0 0 0 0 0 0 0 0 0 0 0 0 0 0 0 0 0 0 0 0 0 0 0 0 0 0 0 0 0 0 0 0 0 0 0 0 0 0 0 0 0 0 0 0 0 0 0 0 0 0 0 0 0 0 0 0 0 0 0 0 0 0 0 0 0 0 0 0 0 0 0 0 0 0 0 0 0 0 0 0 0 0 0 
        </DataArray>
        <DataArray Name="p" NumberOfComponents="1" type="Float32" format="ascii">