<?xml version="1.0"?>
<VTKFile type="StructuredGrid" version="0.1" byte_order="LittleEndian">
  <StructuredGrid WholeExtent="0 32 0 32 0 1">
    <Piece Extent="0 32 0 32 0 1">
      <PointData>
      </PointData>
      <CellData>
        <DataArray Name="vx" NumberOfComponents="1" type="Float32" format="ascii">
0.0201498 0.0199942 0.0198435 0.0197047 0.0195696 0.0194444 0.019327 0.0192302 0.019158 0.0191252 0.019141 0.0192038 0.0193193 0.0194582 0.0196148 0.0197671 0.0199127 0.0200766 0.0202325 0.0204677 0.020644 0.0209187 0.0209984 0.0209805 0.0207148 0.0205879 0.0208266 0.0207891 0.020782 0.0206523 0.020491 0.0203232 0.0199213 0.0198003 0.0196781 0.0195581 0.0194311 0.0193058 0.0191804 0.0190767 0.0190008 0.0189793 0.0190265 0.0191437 0.0193407 0.0195708 0.0198157 0.0200366 0.020228 0.0204116 0.0205793 0.0207778 0.0209275 0.021101 0.0211412 0.021106 0.0209232 0.0207575 0.0207473 0.0206051 0.0204971 0.0203456 0.0201944 0.0200563 0.0196928 0.0195935 0.0194857 0.0193686 0.0192314 0.0190863 0.018933 0.0188063 0.0187172 0.0187089 0.0188049 0.0190143 0.0193466 0.0197237 0.0201044 0.0204259 0.020675 0.0208792 0.0210535 0.0212268 0.021353 0.0214648 0.0214569 0.0213639 0.021153 0.0208926 0.0206975 0.0204525 0.0202571 0.0200758 0.0199239 0.0198026 0.019464 0.0193796 0.0192755 0.0191463 0.0189786 0.0187904 0.018584 0.0184151 0.0182947 0.0182955 0.0184495 0.0187788 0.01932 0.0199386 0.0205402 0.0210072 0.0213139 0.0215291 0.0216977 0.0218418 0.0219356 0.0219919 0.0219103 0.0217315 0.0214254 0.0210246 0.0206647 0.0203051 0.0200291 0.0198147 0.0196603 0.0195532 0.0192186 0.019147 0.0190403 0.0188874 0.0186729 0.0184201 0.0181398 0.0179041 0.0177244 0.0176979 0.0178903 0.0183925 0.019253 0.0202424 0.0211782 0.0218686 0.0222454 0.0224303 0.0225451 0.0226179 0.0226412 0.0226277 0.0224411 0.0221639 0.0217337 0.0211512 0.0206209 0.0201314 0.019778 0.019531 0.0193773 0.0192868 0.0189836 0.0189336 0.0188263 0.0186448 0.0183731 0.0180406 0.0176613 0.0173227 0.016983 0.016806 0.0169058 0.0174992 0.0188517 0.0205612 0.0221612 0.0232207 0.023601 0.0236505 0.0236139 0.0235358 0.0234467 0.0233512 0.0229982 0.0225789 0.021964 0.0211178 0.0204137 0.0198077 0.0194218 0.0191826 0.0190638 0.0190152 0.0187434 0.0187358 0.0186472 0.0184537 0.0181427 0.0177311 0.0172339 0.0166518 0.015874 0.0150679 0.0146801 0.015462 0.0177327 0.0207218 0.0235278 0.0254042 0.0259212 0.0256056 0.0251111 0.0245859 0.0241719 0.0238959 0.0233056 0.0228074 0.0220516 0.0208925 0.0200006 0.0192884 0.0189231 0.0187356 0.018691 0.0187144 0.0185805 0.0186462 0.0186074 0.0184306 0.0181074 0.0176108 0.0168922 0.0157813 0.013899 0.0118123 0.0104481 0.0110824 0.0149609 0.0206483 0.0258494 0.0290412 0.0295253 0.0286073 0.0273057 0.0258702 0.0248706 0.0243572 0.0233366 0.022729 0.0217907 0.0201172 0.0190925 0.018382 0.0181986 0.0181839 0.0182999 0.0184522 0.0184611 0.0186501 0.018726 0.0186457 0.0184015 0.017846 0.0168264 0.014628 0.010862 0.00619486 0.00394698 0.00697342 0.0134818 0.0207001 0.0270296 0.0321848 0.0341753 0.0329409 0.0305395 0.0275329 0.025263 0.0241016 0.0225121 0.0222095 0.0213855 0.0191603 0.0179035 0.0171894 0.0173119 0.0175356 0.0178701 0.0181922 0.0185379 0.0188764 0.0191178 0.0191932 0.0191026 0.0184904 0.017085 0.0136737 0.00804873 0.00446093 0.00676273 0.013946 0.0190176 0.0205775 0.022009 0.0260977 0.0308428 0.0333057 0.0328369 0.0288491 0.0254448 0.023723 0.0205586 0.020267 0.0196949 0.0168406 0.016149 0.0157997 0.0164673 0.0170218 0.0176076 0.0181129 0.0186879 0.0192242 0.0197167 0.0201169 0.0204285 0.0202264 0.0193912 0.0164658 0.0141243 0.0210758 0.0296965 0.0310288 0.0274376 0.0219567 0.0171447 0.014376 0.0162904 0.0232671 0.0291451 0.0275924 0.0233816 0.0195687 0.0153484 0.0151101 0.0139393 0.0134497 0.0146244 0.01441 0.0157949 0.0166374 0.017437 0.0181013 0.0190714 0.0197703 0.0205268 0.0212847 0.0221801 0.0226663 0.0235629 0.0227735 0.0266993 0.0351225 0.0376158 0.034306 0.0279713 0.0219851 0.0165167 0.0111314 0.0089339 0.0100859 0.0168726 0.0210189 0.019384 0.0163354 0.0168479 0.0156632 0.0117804 0.0159681 0.016678 0.0152437 0.0161246 0.0168872 0.0176731 0.0183861 0.0194194 0.0202591 0.0212496 0.0224899 0.0240309 0.02614 0.0292977 0.0346214 0.0407457 0.0412954 0.0372321 0.0320103 0.0265375 0.0216348 0.0171269 0.0127023 0.00906009 0.00590564 0.0067554 0.0117526 0.0147011 0.0160757 0.0197823 0.0160314 0.0118497 0.0130296 0.013842 0.0161612 0.0165643 0.017438 0.0180302 0.0187142 0.0197568 0.0206531 0.0217624 0.0232688 0.0252281 0.0283318 0.0330326 0.0410905 0.0455854 0.0414038 0.035601 0.0301854 0.0253172 0.0211041 0.0173125 0.0138607 0.0108073 0.00774424 0.00652151 0.00942464 0.0123822 0.0146078 0.0185286 0.0140232 0.0108753 0.00727307 0.00749299 0.0146243 0.0159232 0.0175104 0.0182708 0.0190194 0.0199994 0.0207546 0.021766 0.0232071 0.0250657 0.0280281 0.0323528 0.0397087 0.0439989 0.0399937 0.0340979 0.028855 0.0242989 0.0203686 0.0167143 0.0136048 0.0101646 0.00674711 0.00173214 0.00261955 0.00749247 0.00925854 0.010002 0.0110263 0.01481 0.0177059 0.0190117 0.019267 0.0191982 0.0190994 0.0191897 0.0194992 0.0200722 0.0206201 0.02139 0.0225017 0.0238749 0.0260013 0.0287548 0.0347582 0.0411517 0.0394878 0.0337701 0.0284546 0.0235752 0.0193416 0.0151802 0.0116957 0.0074175 0.00353586 -0.00425864 -0.00311628 0.00596671 0.00980964 0.0110501 0.0142998 0.0192158 0.0217066 0.0225102 0.0208364 0.0201638 0.019736 0.0196401 0.0197532 0.0199638 0.0202532 0.0207233 0.0213861 0.0222221 0.0232009 0.024559 0.026636 0.0345511 0.0395085 0.0352048 0.0289972 0.0232096 0.0182442 0.0133063 0.0091866 0.00477146 0.00163001 -0.000611406 0.00299711 0.00964238 0.0132556 0.0151682 0.0185649 0.0222214 0.0230592 0.0229137 0.0217261 0.0209535 0.0203043 0.0199787 0.0198619 0.0197957 0.0198259 0.0199602 0.0200979 0.0202784 0.0200488 0.0194698 0.0173811 0.0180294 0.0263789 0.0315724 0.0282909 0.0224837 0.0163084 0.00988845 0.00574816 0.00481305 0.00684603 0.015286 0.0193586 0.0173138 0.01859 0.0191881 0.021142 0.0230778 0.023403 0.0229856 0.0219337 0.0211592 0.0204956 0.0201004 0.019862 0.0195598 0.0193853 0.019216 0.0189274 0.0184937 0.0174888 0.0154858 0.0112422 0.00660616 0.00765464 0.0159062 0.0205659 0.0180159 0.0139294 0.00920799 0.00854974 0.0131643 0.0197097 0.0254134 0.0249557 0.0215105 0.0212881 0.0215202 0.0225559 0.023546 0.0236284 0.0229511 0.0219566 0.021157 0.0204781 0.0200551 0.0197467 0.019441 0.0191475 0.0187953 0.0182664 0.0175633 0.0164028 0.0143691 0.0106468 0.00471314 0.00102339 0.00297022 0.00883278 0.0141374 0.017145 0.0203071 0.0246273 0.0288922 0.0313814 0.030619 0.0269358 0.0236872 0.0228524 0.0227655 0.0229894 0.0232911 0.0232621 0.02241 0.0214837 0.0208223 0.0202657 0.0199487 0.0196663 0.0193454 0.0190122 0.018569 0.017931 0.0171242 0.0160405 0.0145073 0.0122284 0.00872589 0.0060245 0.00537443 0.00869634 0.0154837 0.0224611 0.0294852 0.0332606 0.0336618 0.0321235 0.029021 0.0258087 0.023353 0.0226719 0.0227388 0.022393 0.0224728 0.0227809 0.0216381 0.0206507 0.0202417 0.019858 0.0197305 0.0195394 0.0194658 0.0191275 0.0186567 0.0179984 0.0171946 0.0162291 0.0150526 0.0136957 0.0118242 0.0105194 0.0104591 0.0124089 0.0166281 0.0218233 0.0269672 0.0292208 0.0291263 0.0279821 0.0259926 0.0240728 0.0224132 0.0224546 0.0224743 0.0211943 0.020627 0.0208615 0.0197164 0.0191122 0.0195473 0.019528 0.0196824 0.019607 0.0196004 0.0192939 0.0188487 0.0182342 0.0175047 0.0166825 0.0157917 0.0149525 0.0140422 0.0135749 0.0137212 0.014959 0.017433 0.0204357 0.0234573 0.0249786 0.0252098 0.024635 0.0234627 0.0223085 0.0210297 0.0219337 0.0212586 0.0194431 0.0192486 0.0185546 0.0170783 0.0174136 0.0189559 0.0192429 0.0196441 0.0196715 0.0200144 0.0196696 0.0192179 0.0186422 0.0179914 0.0172946 0.0165842 0.0159884 0.0154728 0.0153351 0.015635 0.01651 0.0179816 0.0197051 0.0214288 0.0223611 0.022636 0.0223525 0.0216354 0.0204274 0.0191302 0.0174419 0.0164051 0.0174575 0.0183673 0.0186781 0.0174521 0.0179265 0.0196936 0.0199274 0.0202238 0.0201592 0.0203295 0.019973 0.0195392 0.0190235 0.0184685 0.0178995 0.0173475 0.0169056 0.0165769 0.0165284 0.0167665 0.0173547 0.0182712 0.0193004 0.0203188 0.0209006 0.0210961 0.0208206 0.02023 0.0189907 0.017302 0.0135262 0.0131058 0.0165054 0.0190108 0.0203661 0.0192397 0.0194133 0.0202518 0.0204683 0.020641 0.020533 0.0207406 0.0203284 0.0198774 0.0193982 0.0189139 0.0184426 0.0180047 0.0176616 0.0174222 0.0173846 0.0175499 0.017932 0.018499 0.0191203 0.0197304 0.0200838 0.0202453 0.0200805 0.0198616 0.0190827 0.0183992 0.0147093 0.0129912 0.0165688 0.0228372 0.0252534 0.0240718 0.0235665 0.0218959 0.0216665 0.0213654 0.0211054 0.0210007 0.0205466 0.0200979 0.0196625 0.0192475 0.0188619 0.0185175 0.0182497 0.0180653 0.0180177 0.018104 0.0183276 0.0186623 0.0190222 0.0193694 0.0195566 0.0196348 0.0194924 0.0194143 0.0189759 0.0192639 0.0171727 0.0151249 0.0175229 0.0257859 0.0285603 0.0268723 0.0261136 0.0231568 0.0226785 0.0219312 0.0214976 0.0210602 0.0206355 0.0202231 0.0198401 0.0194868 0.0191693 0.0188932 0.0186788 0.0185299 0.0184747 0.0185106 0.0186343 0.0188286 0.0190414 0.0192551 0.0194029 0.0195178 0.0196483 0.0198872 0.0205745 0.0219125 0.0245805 0.0266275 0.024666 0.0222573 0.0213222 0.0221082 0.0230147 0.0223423 0.0223408 0.0218953 0.021524 0.0210049 0.0206169 0.0202512 0.0199229 0.0196277 0.0193686 0.019147 0.0189739 0.0188507 0.0187918 0.0187948 0.0188547 0.0189612 0.0190794 0.0191997 0.019288 0.0193567 0.0194825 0.0196515 0.0203155 0.0211652 0.0240555 0.0255185 0.0231845 0.0160504 0.0141252 0.0191838 0.0209894 0.0218674 0.0220565 0.0217803 0.02143 0.0208397 0.0205127 0.0202073 0.0199372 0.0196957 0.0194853 0.0193056 0.0191635 0.0190599 0.019003 0.0189924 0.0190229 0.0190905 0.0191716 0.0192632 0.0193504 0.0194353 0.0195969 0.0197677 0.0202929 0.0207388 0.0220477 0.0223753 0.0215471 0.0177976 0.016857 0.020346 0.0212439 0.0218158 0.0217906 0.0215273 0.0212029 0.0206241 0.0203608 0.0201146 0.0198974 0.019702 0.0195313 0.0193838 0.0192654 0.0191773 0.0191259 0.0191132 0.0191345 0.0191901 0.0192598 0.019343 0.0194283 0.0195145 0.0196624 0.0198084 0.0202027 0.0204942 0.0212624 0.0214364 0.0211224 0.0196486 0.0192652 0.0207784 0.0211404 0.0214736 0.0213975 0.0211828 0.0209161 0.0203853 0.0201824 0.0199904 0.0198188 0.0196602 0.0195187 0.0193925 0.0192895 0.019212 0.0191687 0.0191648 0.019197 0.0192691 0.0193598 0.0194682 0.0195799 0.0196932 0.0198472 0.019995 0.0202847 0.0204906 0.0209063 0.0210025 0.0209541 0.020369 0.0202232 0.020921 0.0210158 0.0211354 0.0210138 0.0208254 0.0206116 
        </DataArray>
        <DataArray Name="vy" NumberOfComponents="1" type="Float32" format="ascii">
0.0121834 0.0120764 0.0120053 0.011964 0.0119536 0.0119646 0.0119965 0.0120312 0.0120721 0.0120963 0.0121188 0.0121239 0.0121334 0.0121443 0.012164 0.0121869 0.0122137 0.0122527 0.0123002 0.0124075 0.0124597 0.0126301 0.0125478 0.0127247 0.0126743 0.0132601 0.0132112 0.0131461 0.0129328 0.0127049 0.0125013 0.0123215 0.0123284 0.0122126 0.0121351 0.0120902 0.0120769 0.0120819 0.0121018 0.0121129 0.0121194 0.0120931 0.0120605 0.0120068 0.0119746 0.0119637 0.0119829 0.0120163 0.0120543 0.0120917 0.0121361 0.0122278 0.012307 0.0124848 0.0125482 0.0127694 0.0128601 0.0132135 0.0132294 0.0131978 0.0130444 0.0128504 0.012658 0.0124757 0.0124375 0.0123199 0.0122468 0.0122108 0.0122064 0.0122147 0.0122269 0.0122101 0.0121713 0.0120701 0.011956 0.0118091 0.0117068 0.0116678 0.011701 0.011774 0.0118472 0.0118974 0.0119523 0.0120459 0.0121692 0.0123851 0.0125917 0.0128752 0.0130912 0.0133593 0.0134052 0.0133584 0.013204 0.0129988 0.0127903 0.0125945 0.0125376 0.0124213 0.0123607 0.0123451 0.0123605 0.0123808 0.0123838 0.0123305 0.012219 0.0120079 0.0117549 0.0114624 0.0112637 0.0112017 0.0112797 0.0114383 0.0116022 0.0117052 0.0117959 0.0119147 0.0120863 0.0123549 0.012682 0.0130336 0.0133781 0.0136329 0.0137038 0.0136235 0.0134324 0.0131827 0.0129328 0.0127092 0.0126081 0.012507 0.0124784 0.0125059 0.0125611 0.012607 0.0126006 0.0124964 0.0122897 0.0119149 0.0114738 0.0109418 0.0105439 0.010445 0.0106358 0.0110019 0.011335 0.0115109 0.01165 0.0118 0.0120347 0.0123921 0.0128805 0.0133264 0.0138299 0.0140877 0.0141433 0.0139793 0.0136976 0.0133641 0.0130488 0.0127898 0.0126794 0.0126026 0.0126225 0.0127153 0.0128305 0.0129202 0.0129043 0.0127604 0.0124289 0.0118651 0.0110505 0.0100942 0.00940548 0.00926991 0.00964865 0.01035 0.0110405 0.011396 0.0116148 0.0118112 0.0120889 0.0125348 0.0131702 0.0137053 0.0144252 0.0147175 0.0147493 0.0144577 0.0140416 0.013586 0.0131795 0.0128723 0.0126842 0.0126609 0.0127619 0.0129547 0.0131563 0.0133113 0.0133016 0.0131629 0.012786 0.0119965 0.0107781 0.00903407 0.00745893 0.00713122 0.0079881 0.00957689 0.0109378 0.0114903 0.0117904 0.0119587 0.012246 0.0128167 0.0137127 0.0142982 0.0153421 0.0155806 0.0154815 0.0149462 0.0143267 0.0137155 0.0132113 0.0128668 0.0126617 0.012705 0.0129085 0.0132296 0.0135588 0.0138539 0.0139942 0.0141813 0.0140144 0.0131931 0.0105766 0.00701045 0.00411881 0.00348203 0.00495881 0.00787855 0.010846 0.0121866 0.0126432 0.0127293 0.012791 0.0133499 0.0143014 0.0148821 0.0164306 0.0167038 0.0164348 0.0155085 0.0146213 0.0138178 0.0132075 0.012826 0.0124821 0.0126287 0.0129644 0.0134468 0.0139458 0.0145068 0.0150614 0.0161074 0.0166371 0.0154436 0.0115255 0.00480356 -0.0022303 -0.00378761 -0.00036646 0.00597189 0.0114756 0.0136457 0.0146149 0.0143844 0.0138326 0.0143074 0.0155439 0.0156176 0.0180817 0.0180764 0.0173074 0.0157583 0.0145518 0.0135948 0.0129416 0.0125805 0.0122079 0.0124499 0.012919 0.0135774 0.0143728 0.0154973 0.0172526 0.0203471 0.0224536 0.0208592 0.00917556 -0.0029506 -0.00977373 -0.00999594 -0.00657843 0.000370738 0.0101064 0.0158676 0.0180442 0.0179476 0.0162003 0.0159762 0.0162182 0.015904 0.0197053 0.0200424 0.0186813 0.0159895 0.0143428 0.0132318 0.0125613 0.0122366 0.0117143 0.0120453 0.0126251 0.0134523 0.0145765 0.0164821 0.0196617 0.0249121 0.0251183 0.0163029 0.0022327 -0.00661695 -0.00831931 -0.00671922 -0.00548572 -0.00261007 0.00434644 0.0111424 0.0192996 0.0218288 0.0190549 0.0192313 0.0195697 0.0158912 0.0217448 0.0210791 0.0186176 0.0152616 0.0134465 0.0124364 0.0118769 0.0116499 0.0110793 0.011428 0.0120356 0.0129022 0.0143035 0.0166538 0.0211776 0.0258666 0.0186678 0.00562408 -0.000562041 -0.00163847 -0.00108794 2.0671e-05 0.000682401 0.00103802 0.0015437 0.00324662 0.0135119 0.023561 0.0239924 0.0237159 0.0205671 0.0172396 0.0220545 0.0190196 0.018535 0.0144202 0.0121487 0.0114635 0.0110711 0.0109594 0.0103481 0.010597 0.0110904 0.0117998 0.0131043 0.0151097 0.0192685 0.0217057 0.01256 0.00482967 0.00328316 0.0034014 0.0041983 0.00491178 0.00539074 0.00524569 0.00487399 0.00341195 0.00826016 0.020152 0.0232465 0.0232094 0.0192674 0.0210888 0.0209772 0.0154897 0.0195499 0.0156289 0.0120905 0.0109982 0.0104788 0.0102924 0.00949996 0.00958882 0.0098118 0.0101399 0.0107099 0.0114446 0.0129201 0.0147267 0.0117948 0.0091461 0.008731 0.00890443 0.00916842 0.00935498 0.0095005 0.00911278 0.00827013 0.00577577 0.0068227 0.0157994 0.0190555 0.01892 0.019419 0.0272372 0.0249601 0.0186381 0.0146441 0.0117316 0.010389 0.00981766 0.00962973 0.00950338 0.00875411 0.00860575 0.00847722 0.00831796 0.00800566 0.00721625 0.00633632 0.00895416 0.0122126 0.0149643 0.0145331 0.0138125 0.0133419 0.0130065 0.0126695 0.0118726 0.0109972 0.00798299 0.00708292 0.0141573 0.0183727 0.0175432 0.0192618 0.028432 0.0249284 0.0195356 0.0110773 0.00877493 0.00922025 0.00915263 0.00908859 0.00891341 0.00820996 0.00780753 0.00736032 0.00683879 0.00588803 0.00415023 0.00130419 0.00281466 0.0117746 0.0190818 0.0198442 0.018695 0.0175998 0.0168882 0.0162331 0.0155459 0.015149 0.0135946 0.011298 0.00941298 0.0130772 0.0155989 0.0183508 0.0233947 0.0196191 0.0156526 0.0123372 0.010843 0.0101381 0.00954266 0.00906679 0.00861846 0.00791037 0.00729694 0.00660621 0.00584907 0.00455656 0.00237589 -0.00198344 -0.00369123 0.00697623 0.0225819 0.0254949 0.0240761 0.0224939 0.0214225 0.0204107 0.0195653 0.0194631 0.019374 0.0152575 0.002379 0.0058452 0.0118291 0.0151942 0.0190582 0.0172225 0.0152592 0.012682 0.0114872 0.0106299 0.00986494 0.00917606 0.00853095 0.00781532 0.00704855 0.00622896 0.00534409 0.00405206 0.00185748 -0.002335 -0.0065581 -0.000670123 0.0179179 0.0300211 0.0305988 0.0282393 0.0267067 0.0252596 0.0239288 0.0226112 0.018075 0.0100399 -0.000896349 0.00378172 0.00998858 0.0134927 0.0163734 0.0157053 0.0149277 0.0135922 0.0125298 0.0114456 0.0104077 0.00946712 0.00861182 0.00794231 0.00712577 0.00632557 0.00552286 0.004586 0.00311636 0.00055437 -0.00314333 -0.001696 0.00897797 0.024349 0.0332488 0.0346773 0.0340664 0.0311091 0.0247826 0.0180532 0.0100567 0.00266831 0.000529867 0.00552994 0.00979351 0.0126249 0.0149125 0.0150536 0.0150763 0.014342 0.0133272 0.0121611 0.0109389 0.00982923 0.00883149 0.0081916 0.00739894 0.00669481 0.00606612 0.00550685 0.00488381 0.00401352 0.00268986 0.00337954 0.00834637 0.0169212 0.0286932 0.0344442 0.0353248 0.0305548 0.019922 0.0114314 0.00602189 0.00359913 0.0039688 0.00742772 0.0101397 0.0123418 0.0143115 0.0147815 0.0154103 0.0153252 0.0142439 0.012951 0.0114927 0.0102202 0.00911306 0.00845152 0.0077583 0.00720014 0.00674673 0.00645138 0.00628068 0.00629775 0.00638493 0.00746297 0.0109513 0.0159635 0.0221816 0.0267461 0.0279285 0.0240264 0.0162741 0.0115155 0.00839207 0.00724069 0.00764847 0.00939638 0.0106546 0.0125476 0.0142397 0.0148669 0.015826 0.016268 0.0148429 0.0134131 0.0117662 0.0104254 0.00931145 0.00874192 0.00818179 0.00778517 0.00750921 0.00740733 0.0074878 0.00786098 0.0084885 0.00964676 0.0118574 0.0146156 0.0182778 0.0207039 0.0214219 0.0194994 0.0154843 0.0125284 0.0103816 0.00967311 0.00977891 0.0105896 0.0107389 0.0128155 0.0144956 0.0147634 0.0158057 0.0175964 0.0154857 0.0138161 0.0119773 0.0105848 0.00950232 0.00892734 0.00855206 0.00832502 0.00820155 0.00822579 0.00840722 0.00884903 0.00957183 0.0106299 0.012285 0.0140303 0.0159682 0.0172347 0.0175771 0.016527 0.0143918 0.0128231 0.0116013 0.0111442 0.0112482 0.0109542 0.0101526 0.01414 0.0157337 0.015346 0.0167157 0.0185004 0.0148759 0.0131292 0.0115746 0.0103677 0.00949484 0.00914069 0.00893597 0.00885366 0.0088533 0.00896531 0.00919243 0.00960778 0.0102288 0.0110615 0.0121968 0.0133232 0.0145252 0.0152424 0.015437 0.0148909 0.0137538 0.0128158 0.0121135 0.0119634 0.0121995 0.0112396 0.0104461 0.0155502 0.016462 0.0157126 0.017777 0.01861 0.0133896 0.0120417 0.0111992 0.010196 0.00953184 0.00942064 0.00933852 0.00934983 0.00942294 0.00957571 0.00980764 0.0101664 0.0106669 0.0112967 0.0121005 0.0128609 0.0135976 0.0140266 0.0141452 0.0138514 0.0132723 0.0128441 0.0126872 0.0130556 0.0139594 0.013957 0.0128298 0.0139824 0.0137667 0.0135799 0.0178826 0.0192263 0.012631 0.0112513 0.0110506 0.0101823 0.00969043 0.00970356 0.00972671 0.0098073 0.00992509 0.010093 0.0103106 0.0106091 0.0109932 0.0114533 0.0120029 0.0125174 0.0130039 0.013289 0.0133857 0.013248 0.012975 0.012825 0.0129537 0.0136317 0.0150145 0.0163339 0.0146821 0.0124117 0.0113061 0.0118852 0.0180036 0.0192502 0.0126877 0.0108492 0.0107858 0.01012 0.00982891 0.0101912 0.0102028 0.0102766 0.0103846 0.0105313 0.0107141 0.0109518 0.0112439 0.0115809 0.011965 0.0123199 0.0126433 0.0128414 0.0129284 0.0128924 0.0128076 0.0128711 0.0131695 0.0141189 0.0156208 0.0186036 0.0186098 0.0120144 0.00365617 0.0042908 0.0166737 0.0204555 0.0151984 0.0128633 0.0116203 0.010733 0.0103301 0.0106386 0.0106343 0.0106902 0.0107772 0.010895 0.0110402 0.0112244 0.011443 0.01169 0.0119603 0.0122111 0.0124377 0.0125869 0.0126695 0.0126874 0.0126924 0.0128251 0.0131333 0.0139741 0.0151096 0.0177532 0.0185605 0.0116846 0.00139817 0.000813144 0.0175956 0.0216326 0.0166273 0.0141019 0.012156 0.0112207 0.0107805 0.0110718 0.0110455 0.0110691 0.011121 0.0112016 0.0113069 0.0114437 0.0116056 0.0117879 0.0119822 0.0121637 0.0123255 0.0124393 0.0125111 0.0125448 0.0125726 0.0126708 0.0128689 0.0132956 0.013825 0.0146125 0.0146631 0.0117477 0.00803105 0.00681651 0.0170635 0.0182632 0.015112 0.0134705 0.0121563 0.0115237 0.0111929 0.011446 0.0113926 0.0113833 0.0114024 0.0114499 0.0115212 0.0116202 0.0117385 0.0118734 0.0120141 0.012148 0.0122669 0.0123574 0.0124219 0.0124658 0.0125106 0.0126019 0.0127702 0.0130629 0.0134614 0.0137981 0.0139988 0.0123477 0.0109638 0.0102518 0.0145898 0.0149434 0.0139261 0.013058 0.0122749 0.0118333 0.0115695 0.0117566 0.0116801 0.0116426 0.0116333 0.0116533 0.0116968 0.0117662 0.0118509 0.0119498 0.0120493 0.0121456 0.0122282 0.0122943 0.0123426 0.0123778 0.0124106 0.0124617 0.0125562 0.0126909 0.0129127 0.0130004 0.01317 0.0124801 0.0122513 0.0117666 0.0140415 0.0139256 0.0134671 0.0129121 0.0124192 0.0120998 0.0118826 0.0120002 0.0119049 0.0118459 0.0118159 0.0118162 0.0118395 0.0118867 0.0119444 0.0120135 0.0120769 0.0121389 0.0121873 0.0122298 0.012263 0.012293 0.0123225 0.0123625 0.0124311 0.0125174 0.0126803 0.0127311 0.0129065 0.0125428 0.0125807 0.0123473 0.0134051 0.0133276 0.0131884 0.0128736 0.0125653 0.0123241 0.012133 
        </DataArray>
        <DataArray Name="vz" NumberOfComponents="1" type="Float32" format="ascii">
0 0 0 0 0 0 0 0 0 0 0 0 0 0 0 0 0 0 0 0 0 0 0 0 0 0 0 0 0 0 0 0 0 0 0 0 0 0 0 0 0 0 0 0 0 0 0 0 0 0 0 0 0 0 0 0 0 0 0 0 0 0 0 0 0 0 0 0 0 0 0 0 0 0 0 0 0 0 0 0 0 0 0 0 0 0 0 0 0 0 0 0 0 0 0 0 0 0 0 0 0 0 0 0 0 0 0 0 0 0 0 0 0 0 0 0 0 0 0 0 0 0 0 0 0 0 0 0 0 0 0 0 0 0 0 0 0 0 0 0 0 0 0 0 0 0 0 0 0 0 0 0 0 0 0 0 0 0 0 0 0 0 0 0 0 0 0 0 0 0 0 0 0 0 0 0 0 0 0 0 0 0 0 0 0 0 0 0 0 0 0 0 0 0 0 0 0 0 0 0 0 0 0 0 0 0 0 0 0 0 0 0 0 0 0 0 0 0 0 0 0 0 0 0 0 0 0 0 0 0 0 0 0 0 0 0 0 0 0 0 0 0 0 0 0 0 0 0 0 0 0 0 0 0 0 0 0 0 0 0 0 0 0 0 0 0 0 0 0 0 0 0 0 0 0 0 0 0 0 0 0 0 0 0 0 0 0 0 0 0 0 0 0 0 0 0 0 0 0 0 0 0 0 0 0 0 0 0 0 0 0 0 0 0 0 0 0 0 0 0 0 0 0 0 0 0 0 0 0 0 0 0 0 0 0 0 0 0 0 0 0 0 0 0 0 0 0 0 0 0 0 0 0 0 0 0 0 0 0 0 0 0 0 0 0 0 0 0 0 0 0 0 0 0 0 0 0 0 0 0 0 0 0 0 0 0 0 0 0 0 0 0 0 0 0 0 0 0 0 0 0 0 0 0 0 0 0 0 0 0 0 0 0 0 0 0 0 0 0 0 0 0 0 0 0 0 0 0 0 0 0 0 0 0 0 0 0 0 0 0 0 0 0 0 0 0 0 0 0 0 0 0 0 0 0 0 0 0 0 0 0 0 0 0 0 0 0 0 0 0 0 0 0 0 0 0 0 0 0 0 0 0 0 0 0 0 0 0 0 0 0 0 0 0 0 0 0 0 0 0 0 0 0 0 0 0 0 0 0 0 0 0 0 0 0 0 0 0 0 0 0 0 0 0 0 0 0 0 0 0 0 0 0 0 0 0 0 0 0 0 0 0 0 0 0 0 0 0 0 0 0 0 0 0 0 0 0 0 0 0 0 0 0 0 0 0 0 0 0 0 0 0 0 0 0 0 0 0 0 0 0 0 0 0 0 0 0 0 0 0 0 0 0 0 0 0 0 0 0 0 0 0 0 0 0 0 0 0 0 0 0 0 0 0 0 0 0 0 0 0 0 0 0 0 0 0 0 0 0 0 0 0 0 0 0 0 0 0 0 0 0 0 0 0 0 0 0 0 0 0 0 0 0 0 0 0 0 0 0 0 0 0 0 0 0 0 0 0 0 0 0 0 0 0 0 0 0 0 0 0 0 0 0 0 0 0 0 0 0 0 0 0 0 0 0 0 0 0 0 0 0 0 0 0 0 0 0 0 0 0 0 0 0 0 0 0 0 0 0 0 0 0 0 0 0 0 0 0 0 0 0 0 0 0 0 0 0 0 0 0 0 0 0 0 0 0 0 0 0 0 0 0 0 0 0 0 0 0 0 0 0 0 0 0 0 0 0 0 0 0 0 0 0 0 0 0 0 0 0 0 0 0 0 0 0 0 0 0 0 0 0 0 0 0 0 0 0 0 0 0 0 0 0 0 0 0 0 0 0 0 0 0 0 0 0 0 0 0 0 0 0 0 0 0 0 0 0 0 0 0 0 0 0 0 0 0 0 0 0 0 0 0 0 0 0 0 0 0 0 0 0 0 0 0 0 0 0 0 0 0 0 0 0 0 0 0 0 0 0 0 0 0 0 0 0 0 0 0 0 0 0 0 0 0 0 0 0 0 0 0 0 0 0 0 0 0 0 0 0 0 0 0 0 0 0 0 0 0 0 0 0 0 0 0 0 0 0 0 0 0 0 0 0 0 0 0 0 0 0 0 0 0 0 0 0 0 0 0 0 0 0 0 0 0 0 0 0 0 0 0 0 0 0 0 0 0 0 0 0 0 0 0 0 0 0 0 0 0 0 0 0 0 0 0 0 0 0 0 0 0 0 0 0 0 0 0 0 0 0 0 0 0 0 0 0 0 0 0 0 0 0 0 0 0 0 0 0 0 0 0 0 0 0 0 0 0 0 0 0 0 0 0 0 0 
        </DataArray>
        <DataArray Name="p" NumberOfComponents="1" type="Float32" format="ascii">