<?xml version="1.0"?>
<VTKFile type="StructuredGrid" version="0.1" byte_order="LittleEndian">
  <StructuredGrid WholeExtent="0 32 0 32 0 1">
    <Piece Extent="0 32 0 32 0 1">
      <PointData>
      </PointData>
      <CellData>
        <DataArray Name="vx" NumberOfComponents="1" type="Float32" format="ascii">
0.0201599 0.0199842 0.0198129 0.0196513 0.019492 0.0193418 0.0192003 0.0190815 0.0189933 0.0189521 0.018971 0.0190524 0.0191967 0.0193778 0.0195748 0.01977 0.019941 0.0201267 0.0202832 0.0205183 0.0206899 0.0209789 0.0210699 0.021147 0.0209683 0.0208208 0.0209809 0.020889 0.0208713 0.0207036 0.020538 0.020347 0.0199451 0.0198016 0.0196562 0.0195104 0.0193555 0.0191998 0.0190443 0.01891 0.01881 0.0187713 0.0188163 0.0189525 0.0191839 0.0194689 0.0197692 0.0200485 0.02028 0.0204943 0.0206679 0.0208707 0.0210114 0.0211956 0.0212364 0.0212536 0.021109 0.0209381 0.0209046 0.0207237 0.020609 0.0204226 0.0202611 0.0200978 0.0197312 0.019609 0.0194766 0.0193312 0.0191626 0.0189804 0.0187892 0.0186189 0.0184927 0.0184514 0.0185343 0.018762 0.0191366 0.0195895 0.0200489 0.0204528 0.0207615 0.0210056 0.0211892 0.0213635 0.0214735 0.0215849 0.0215682 0.021501 0.0213083 0.0210501 0.0208508 0.0205779 0.0203786 0.0201684 0.0200046 0.0198599 0.0195194 0.0194119 0.0192823 0.0191225 0.0189202 0.0186876 0.0184341 0.0182043 0.0180295 0.0179717 0.0180953 0.0184408 0.019034 0.0197617 0.0204756 0.0210618 0.0214552 0.0217191 0.0218944 0.0220269 0.0220887 0.0221262 0.0220207 0.0218494 0.021556 0.0211682 0.0208182 0.0204408 0.0201643 0.0199246 0.0197577 0.0196281 0.0192966 0.0192033 0.0190725 0.0188885 0.0186384 0.0183337 0.0179952 0.0176709 0.0174063 0.0172709 0.017397 0.0179079 0.0188361 0.0199938 0.021101 0.0219716 0.0224745 0.0227181 0.0228289 0.0228674 0.0228338 0.0227771 0.022548 0.02226 0.0218381 0.0212842 0.0207743 0.0202737 0.0199267 0.0196577 0.0194941 0.0193829 0.0190842 0.0190144 0.0188861 0.0186747 0.018368 0.0179763 0.0175267 0.0170621 0.0166007 0.0162386 0.0162196 0.0168062 0.0182406 0.0202079 0.0220605 0.0234016 0.0239819 0.0241027 0.0240335 0.0238739 0.0236763 0.0234953 0.0230691 0.0226235 0.0220342 0.0212586 0.0205883 0.0199697 0.0195943 0.0193281 0.0192012 0.0191314 0.0188768 0.0188538 0.0187514 0.018534 0.0181945 0.017719 0.0171361 0.0163743 0.0154181 0.0142955 0.0137065 0.0144658 0.0168372 0.0202176 0.0233914 0.025684 0.0265048 0.0262898 0.0257292 0.0250643 0.0244775 0.0240596 0.0233654 0.0227934 0.0220604 0.0210431 0.0201932 0.0194623 0.0191184 0.0188996 0.0188546 0.0188578 0.0187371 0.0187925 0.0187485 0.0185553 0.0182112 0.01765 0.0168392 0.015518 0.013469 0.0109651 0.00934766 0.00993121 0.0138427 0.0199342 0.0254763 0.0292746 0.0303155 0.0295884 0.0282016 0.0265484 0.0252555 0.0244793 0.0232837 0.0225322 0.0217011 0.0203691 0.0193857 0.0186131 0.0184396 0.0183677 0.0184842 0.0186126 0.0186602 0.0188465 0.0189311 0.0188521 0.0186091 0.0180158 0.0169282 0.0145692 0.0107138 0.00549491 0.0029788 0.00600364 0.0124033 0.0198423 0.0263366 0.0320482 0.0347628 0.0339408 0.0315522 0.0283816 0.0257844 0.0242598 0.0224626 0.021739 0.0210071 0.0194866 0.0182641 0.0174441 0.0175843 0.0177402 0.0180875 0.0183865 0.0187433 0.0190887 0.0193512 0.0194442 0.0193736 0.0187797 0.0173913 0.0140979 0.00885956 0.00496894 0.00675558 0.0139627 0.0192642 0.0211519 0.0227466 0.0265841 0.0313962 0.0341751 0.0337788 0.0297541 0.0259516 0.0236162 0.0202329 0.019057 0.0188265 0.0176157 0.0168015 0.0161621 0.016787 0.0172294 0.017823 0.0183042 0.018944 0.0194937 0.0200218 0.0204692 0.0208492 0.0207915 0.0201188 0.0179181 0.0159241 0.022014 0.0302165 0.0319451 0.0287471 0.0231984 0.0183812 0.0154126 0.0169507 0.0236086 0.0295166 0.0281117 0.0238121 0.019896 0.0158545 0.0144794 0.0137148 0.014924 0.01548 0.0147757 0.0160919 0.0168616 0.0176881 0.0183396 0.0192921 0.0200202 0.0208207 0.0216409 0.0226111 0.0233382 0.02441 0.0247737 0.0287323 0.0365696 0.0394357 0.0361221 0.0296703 0.0231177 0.0172465 0.0115296 0.00902908 0.0101881 0.0173107 0.0214486 0.0197397 0.0169504 0.0172783 0.0179645 0.0145912 0.0165227 0.0168603 0.015566 0.0164014 0.0170876 0.0178639 0.0185815 0.0196916 0.0205556 0.0215858 0.022872 0.0244921 0.0266761 0.0299238 0.0348787 0.0408129 0.0426413 0.039426 0.0340731 0.0281857 0.0226227 0.0175418 0.0125385 0.00848277 0.00522904 0.00659682 0.0114139 0.014008 0.0139457 0.017085 0.0164281 0.0132086 0.0112771 0.0114729 0.0155252 0.0163815 0.0175673 0.0182289 0.0189675 0.0199679 0.0208988 0.0220501 0.0235799 0.0255856 0.0285751 0.0331399 0.039665 0.044735 0.0432433 0.0378468 0.0321216 0.0267112 0.0218862 0.0175099 0.0134318 0.00970097 0.00629301 0.00406103 0.00710575 0.0116965 0.0152259 0.0197076 0.0165533 0.0147715 0.0126594 0.0120231 0.016149 0.0166541 0.0179316 0.018479 0.0192334 0.0202556 0.0210382 0.0221001 0.0235966 0.0255841 0.028681 0.0332084 0.040689 0.0456928 0.0426427 0.0365878 0.0307407 0.025541 0.0209978 0.0167515 0.0129936 0.00877997 0.00476598 -0.00143503 -0.00047865 0.00603657 0.00993338 0.0124406 0.0131385 0.0166158 0.0180594 0.0185006 0.019425 0.0192746 0.0193226 0.0194071 0.0197436 0.0202467 0.0208505 0.0216968 0.0229046 0.0244538 0.0269161 0.0301902 0.0373484 0.0445393 0.0427991 0.036438 0.0302564 0.0246856 0.0198745 0.0152566 0.0112812 0.00664104 0.00235278 -0.00500369 -0.00336301 0.00525717 0.00939492 0.0109909 0.0131049 0.0164391 0.0192463 0.0216315 0.0206908 0.0201261 0.019787 0.0197133 0.01988 0.0201315 0.0204595 0.0209774 0.0216931 0.0226206 0.0237216 0.025365 0.0276275 0.0349008 0.0404785 0.0370119 0.0304233 0.0240813 0.0185725 0.0132596 0.00873512 0.00423087 0.000760604 -0.00214985 0.00167915 0.00846671 0.0124352 0.0145452 0.0172044 0.0199094 0.0211264 0.0220866 0.0213516 0.0208154 0.0203014 0.0200541 0.019989 0.019895 0.0199649 0.020123 0.0202834 0.0204063 0.0201549 0.0191596 0.0171351 0.015198 0.0234116 0.0313012 0.0282953 0.022617 0.0163544 0.0101972 0.00597818 0.00547984 0.00689451 0.0139873 0.0185585 0.0169569 0.0182836 0.0186674 0.0202532 0.0217936 0.0223079 0.0224003 0.0215591 0.0209683 0.0204021 0.020093 0.0199129 0.0196387 0.0194955 0.0193485 0.0190909 0.0186655 0.0177009 0.015786 0.0118385 0.00798615 0.00862563 0.0160888 0.0207166 0.0180394 0.0139166 0.00958754 0.00888864 0.0136586 0.0204584 0.026484 0.0259301 0.0219285 0.0213809 0.0211861 0.0219269 0.0225806 0.0226812 0.0223563 0.0215562 0.0209588 0.020382 0.0200462 0.0197863 0.019481 0.0192074 0.0188589 0.0183303 0.0175808 0.0163511 0.0142291 0.0103768 0.00533288 0.00122499 0.00227265 0.00852495 0.0134252 0.016186 0.0189157 0.0231253 0.0274039 0.0305168 0.0311492 0.0276856 0.0241667 0.0231157 0.0226012 0.0226078 0.022579 0.0224566 0.0219051 0.0211155 0.0206315 0.0201564 0.0199163 0.0196736 0.0193805 0.0190518 0.0186034 0.0179589 0.0171141 0.0159704 0.0143308 0.0118188 0.00829889 0.00511834 0.00406967 0.00777096 0.0150543 0.022208 0.0288869 0.0329755 0.0334886 0.0324002 0.0302068 0.0269274 0.0241255 0.0232173 0.0227721 0.0222319 0.0216377 0.0216105 0.0211068 0.0203472 0.0201179 0.0198106 0.0197343 0.0195597 0.0194828 0.0191397 0.0186551 0.017978 0.0171294 0.0161021 0.0148285 0.0132788 0.0113241 0.00969333 0.00934142 0.0115279 0.016398 0.0221418 0.0275762 0.0301526 0.0300026 0.0288826 0.0270741 0.025037 0.0232207 0.0230108 0.022573 0.021343 0.0200302 0.0195559 0.0191299 0.0189138 0.0194414 0.019509 0.0196878 0.0196194 0.0196471 0.0193131 0.0188395 0.0181967 0.0174233 0.0165502 0.0155848 0.014621 0.0136104 0.012963 0.0130034 0.0144084 0.0173141 0.0207398 0.024071 0.025817 0.0260354 0.0254895 0.024425 0.0232795 0.0221069 0.0226819 0.0220489 0.0201851 0.0201458 0.0189917 0.0171542 0.0177905 0.0190353 0.0194276 0.0197596 0.0197525 0.0200468 0.0196729 0.0191912 0.0185861 0.0178943 0.0171542 0.0163882 0.0157175 0.0151448 0.0149228 0.0151911 0.016177 0.0179193 0.0199209 0.0218862 0.0229886 0.0233018 0.02307 0.0224915 0.021568 0.0206775 0.0208872 0.0200615 0.0190675 0.0200144 0.020776 0.0195043 0.0190958 0.0200102 0.0202224 0.0203551 0.0202385 0.0203884 0.0199906 0.019517 0.0189677 0.0183728 0.0177657 0.0171703 0.0166819 0.0163195 0.0162385 0.0164857 0.0171557 0.0182397 0.0194351 0.0206082 0.0212965 0.0215277 0.0212653 0.0206531 0.0193305 0.0173432 0.0134299 0.0134673 0.0169087 0.0194494 0.0214037 0.0211245 0.020949 0.0208837 0.0209058 0.0208487 0.0206624 0.0207745 0.0203272 0.0198426 0.0193358 0.0188182 0.0183163 0.0178455 0.017473 0.0172159 0.0171701 0.0173575 0.0178019 0.0184812 0.0192147 0.0199335 0.0203652 0.0205574 0.0204073 0.020139 0.0193152 0.0182658 0.0147644 0.0139989 0.0171818 0.0220525 0.0252559 0.0260698 0.0254358 0.0227916 0.02213 0.0215681 0.0212008 0.0209882 0.0205293 0.0200574 0.0196005 0.0191572 0.0187462 0.0183761 0.0180882 0.0178938 0.0178477 0.0179577 0.0182287 0.0186393 0.0190747 0.0194954 0.0197364 0.0198439 0.0197156 0.0196399 0.0192288 0.0195103 0.0176872 0.0171425 0.0187348 0.0229737 0.0261685 0.025358 0.0244783 0.0229025 0.0224782 0.0218714 0.0214837 0.0210264 0.020603 0.0201747 0.0197752 0.0193993 0.0190615 0.0187656 0.0185373 0.0183828 0.018333 0.0183904 0.0185515 0.0187999 0.0190681 0.0193323 0.019514 0.0196386 0.0197232 0.019919 0.0203021 0.0214191 0.0227638 0.0230022 0.0216433 0.0202701 0.0195502 0.0202136 0.0216453 0.0219145 0.022096 0.0217933 0.021477 0.0209671 0.020581 0.0202025 0.0198593 0.0195442 0.019267 0.0190285 0.0188439 0.0187165 0.0186628 0.0186831 0.0187717 0.0189168 0.0190761 0.0192314 0.0193458 0.0194218 0.0195216 0.0196819 0.0201885 0.0210526 0.0233169 0.0241407 0.0230209 0.0192819 0.016857 0.018932 0.0206438 0.021602 0.0218685 0.0216826 0.0213765 0.0208146 0.0204806 0.0201611 0.019875 0.0196144 0.0193868 0.0191913 0.0190384 0.0189304 0.0188776 0.0188809 0.0189353 0.0190336 0.0191498 0.01927 0.0193819 0.0194719 0.0196177 0.0197738 0.0201964 0.020652 0.0218219 0.0219912 0.0216364 0.019281 0.0180039 0.0201132 0.0210399 0.0216686 0.0216931 0.021483 0.0211729 0.0206077 0.0203329 0.0200716 0.0198371 0.0196223 0.0194333 0.019269 0.019138 0.0190433 0.0189931 0.0189907 0.0190323 0.019114 0.0192161 0.0193256 0.0194371 0.0195305 0.0196774 0.0198124 0.0201588 0.0204546 0.0211788 0.0213541 0.0213187 0.020311 0.0197629 0.0207874 0.0211185 0.0214465 0.0213608 0.0211711 0.0209004 0.020385 0.0201639 0.0199533 0.0197615 0.0195813 0.0194189 0.0192732 0.0191542 0.0190665 0.0190209 0.0190243 0.0190755 0.019174 0.0193 0.0194395 0.0195843 0.0197125 0.0198785 0.0200206 0.0202941 0.0204964 0.0209137 0.0210118 0.0211165 0.0207296 0.0205271 0.02104 0.0210836 0.0211941 0.0210397 0.0208552 0.0206215 
        </DataArray>
        <DataArray Name="vy" NumberOfComponents="1" type="Float32" format="ascii">
0.012213 0.0121183 0.0120571 0.0120227 0.0120154 0.0120254 0.0120495 0.0120716 0.0120897 0.0120877 0.0120737 0.0120449 0.01202 0.0120074 0.0120146 0.0120402 0.012081 0.0121481 0.0122281 0.0123741 0.0124782 0.0126805 0.0126579 0.0128621 0.0127628 0.0132038 0.0131465 0.0130964 0.0128914 0.0126884 0.0124994 0.0123371 0.0123766 0.0122756 0.0122102 0.0121746 0.0121658 0.012171 0.0121818 0.0121779 0.0121535 0.0120922 0.0120061 0.0119045 0.0118224 0.0117805 0.0117866 0.0118294 0.0118946 0.0119749 0.0120628 0.0122037 0.0123247 0.0125374 0.0126255 0.0128589 0.0129022 0.013196 0.0131851 0.0131686 0.0130173 0.0128483 0.0126705 0.0125082 0.0125078 0.0124062 0.012347 0.0123228 0.0123251 0.0123359 0.0123384 0.0123058 0.0122272 0.0120826 0.011892 0.0116796 0.0115041 0.0114224 0.0114397 0.0115287 0.0116468 0.0117578 0.0118725 0.0120235 0.0121864 0.0124326 0.0126464 0.0129341 0.0131123 0.0133597 0.0133873 0.0133545 0.013204 0.0130199 0.0128255 0.0126487 0.0126291 0.0125317 0.0124889 0.0124903 0.0125177 0.0125474 0.0125446 0.0124799 0.0123206 0.0120576 0.0116911 0.0113036 0.0109904 0.0108642 0.0109212 0.0111066 0.0113433 0.0115346 0.0117115 0.0119005 0.0121188 0.0124126 0.01274 0.0130814 0.0133907 0.0136287 0.0136947 0.013625 0.0134468 0.0132173 0.0129855 0.0127819 0.012722 0.0126416 0.0126336 0.012683 0.0127557 0.0128197 0.0128145 0.0127093 0.0124502 0.0120227 0.0114175 0.0107552 0.010178 0.00998353 0.0101436 0.0105486 0.0110021 0.0113146 0.0115817 0.0118206 0.0121109 0.0124805 0.012956 0.0133635 0.0138225 0.0140607 0.0141371 0.0139835 0.0137299 0.013416 0.013123 0.0128837 0.0128111 0.012759 0.0128056 0.0129299 0.0130756 0.0132025 0.0132106 0.0130927 0.0127164 0.0121 0.011029 0.00987038 0.00888345 0.00859557 0.00893655 0.00971215 0.0105983 0.0111668 0.0115688 0.0118782 0.0122225 0.0126715 0.0132823 0.0137634 0.0144015 0.0146652 0.0147418 0.0144545 0.0140819 0.0136445 0.0132668 0.0129804 0.0128359 0.0128366 0.0129662 0.0131962 0.0134395 0.0136525 0.0136998 0.0136269 0.0132335 0.0124206 0.0108399 0.00881542 0.00675294 0.0061807 0.00695526 0.00863075 0.0103292 0.0112544 0.0118394 0.0121706 0.0125247 0.0130654 0.0138755 0.0143539 0.0152156 0.0154493 0.0154574 0.0149389 0.0143878 0.013794 0.0133227 0.0129958 0.0128189 0.0128902 0.0131299 0.0135017 0.0138994 0.0142968 0.0145684 0.0148896 0.0147861 0.0139397 0.0107365 0.00672461 0.00304585 0.00204672 0.0034558 0.00654193 0.0099986 0.0119365 0.0127982 0.0131052 0.0132311 0.0137432 0.0145649 0.0150607 0.0161929 0.0165012 0.0163993 0.0154917 0.014682 0.0138924 0.0133195 0.0129567 0.0126545 0.0128209 0.0131889 0.0137228 0.0143066 0.0149973 0.0157486 0.016948 0.0176636 0.0165455 0.0119211 0.00473992 -0.00335583 -0.00540293 -0.0023997 0.00379775 0.0100864 0.0133205 0.0149328 0.0151261 0.0146542 0.015027 0.0159034 0.0159002 0.0173515 0.0176539 0.0172678 0.0158001 0.0146754 0.0137231 0.0130924 0.0127373 0.0123609 0.012626 0.0131322 0.0138527 0.0147603 0.0160528 0.0180692 0.0212697 0.02389 0.0220802 0.00968942 -0.00312218 -0.0111267 -0.0118184 -0.00875223 -0.00208153 0.00809768 0.0152623 0.018317 0.0188537 0.0172885 0.01699 0.0170045 0.0166634 0.018412 0.0192758 0.0186301 0.0160931 0.0144588 0.0133448 0.012685 0.0123718 0.0118769 0.0122125 0.0128128 0.0136845 0.0149049 0.0169225 0.0202736 0.0253108 0.026457 0.0182096 0.00320626 -0.00712146 -0.010033 -0.00882271 -0.00757494 -0.0046497 0.00250469 0.0106195 0.0194161 0.0230852 0.0208521 0.0209544 0.0204869 0.0177061 0.0181133 0.0195743 0.0187389 0.0156309 0.0136819 0.0126562 0.0120562 0.0118211 0.0111966 0.0115495 0.012166 0.0130576 0.0144885 0.0168506 0.0211122 0.0253883 0.0203223 0.00817737 0.000155344 -0.00237828 -0.00260836 -0.00174425 -0.00119933 -0.000820587 7.62701e-05 0.00287156 0.0135013 0.0245403 0.0251348 0.0245314 0.021805 0.0191982 0.018238 0.0178666 0.0194018 0.015393 0.0124972 0.0116869 0.0112001 0.011087 0.0104562 0.0106953 0.011177 0.0118854 0.0131476 0.0150929 0.0187292 0.0209428 0.0146737 0.00705028 0.00351441 0.00282594 0.00318467 0.00374157 0.00407754 0.00382769 0.00358461 0.00262923 0.00804724 0.0215841 0.0252936 0.0247179 0.0195017 0.0199613 0.0192169 0.0171224 0.0189807 0.0154996 0.0121422 0.0111726 0.0105991 0.0104248 0.00957847 0.0096488 0.00985502 0.0101782 0.0107425 0.0115302 0.0130858 0.0147753 0.0122377 0.00970708 0.00875458 0.00869133 0.00874582 0.00878389 0.00876785 0.00818281 0.00728406 0.0048216 0.00664221 0.0171189 0.0215898 0.0211732 0.018904 0.0236335 0.023248 0.0200091 0.0154222 0.0117878 0.0105618 0.00996368 0.00974998 0.00960585 0.00880631 0.0086311 0.00848845 0.00833152 0.00807665 0.00747278 0.00717412 0.00942199 0.0108419 0.0142684 0.0146926 0.0140983 0.0135255 0.0130397 0.0126099 0.01175 0.0108751 0.00827433 0.00817869 0.0135742 0.0176782 0.0171134 0.0179988 0.0242644 0.0229175 0.0209062 0.0144741 0.0101682 0.00987302 0.00941973 0.00925707 0.00900131 0.00824493 0.00778814 0.00729207 0.00670145 0.0056926 0.00393145 0.0012216 0.00220916 0.0105967 0.0186916 0.0205879 0.0196335 0.0184079 0.017475 0.0166981 0.0159518 0.0154445 0.0142105 0.0119386 0.00917796 0.011976 0.0145543 0.0165006 0.0203646 0.0183037 0.0177427 0.0140182 0.0115222 0.0106019 0.00980709 0.00924449 0.00871107 0.0078662 0.00719922 0.00644849 0.00556817 0.00412197 0.00165244 -0.00286693 -0.00537561 0.00490048 0.0224657 0.027354 0.0259367 0.0240352 0.0225356 0.0213337 0.0204795 0.0200966 0.0203572 0.0148899 0.00249556 0.00462171 0.0106369 0.0139435 0.0177356 0.0167144 0.0157776 0.0133532 0.0118054 0.0108505 0.00996135 0.00922702 0.00852641 0.00775572 0.00693327 0.00605774 0.0050747 0.0036738 0.0013132 -0.00278874 -0.00672702 -0.00122596 0.0158077 0.0303141 0.0323026 0.030098 0.0281584 0.0264382 0.0248405 0.0232834 0.0202738 0.0102984 -0.00132054 0.00199504 0.00853771 0.0122401 0.0152897 0.0151619 0.0149821 0.0138012 0.0126768 0.0115836 0.0104867 0.00950611 0.00859645 0.00782702 0.00696935 0.00612182 0.00524629 0.00421005 0.00265212 7.29146e-05 -0.00281126 -0.00115462 0.00618201 0.0238988 0.034504 0.0363485 0.0350126 0.0317598 0.025428 0.0186236 0.0125739 0.00344595 -5.25295e-05 0.00434382 0.00877688 0.0118501 0.0142801 0.0147461 0.0149213 0.0142546 0.0132421 0.0121015 0.0108734 0.00976193 0.00874058 0.00805131 0.00722513 0.0064778 0.00578424 0.00512595 0.00435387 0.00328675 0.00187066 0.00254865 0.00719734 0.01765 0.0303468 0.0366506 0.0364433 0.0313039 0.0208042 0.0118814 0.0074692 0.00411014 0.00328007 0.00651475 0.00939776 0.0118694 0.0139073 0.0146857 0.0150407 0.0149699 0.0139745 0.0127578 0.011348 0.0101007 0.00898817 0.00829747 0.00758116 0.00699127 0.00650006 0.00614967 0.00591879 0.00585016 0.00589434 0.00707269 0.0101073 0.016239 0.0235616 0.0289428 0.0295285 0.0251687 0.0170167 0.0114482 0.00853653 0.00691091 0.00698715 0.00881361 0.0102826 0.0123265 0.0140887 0.0150331 0.0154665 0.0157034 0.014483 0.0131291 0.0115762 0.0102725 0.00916655 0.00857249 0.00800233 0.00758282 0.00728135 0.00714055 0.00718441 0.00750213 0.00809158 0.00932177 0.0115501 0.0149517 0.0192389 0.0221316 0.0226567 0.0203791 0.0159476 0.0124939 0.010451 0.00945039 0.00934051 0.0101944 0.0107591 0.0130388 0.0149068 0.015915 0.0151265 0.0162356 0.0148868 0.0133185 0.0116904 0.0103723 0.0093296 0.00878354 0.00839875 0.00815202 0.00801408 0.00801828 0.00819512 0.00862953 0.00936629 0.0105062 0.0121968 0.0143037 0.0166068 0.0181558 0.0184099 0.0171637 0.0147078 0.0128042 0.0115148 0.0108929 0.0109348 0.0109246 0.0110929 0.0138278 0.0161059 0.0168454 0.0165292 0.0164126 0.0141632 0.012578 0.0113105 0.0101889 0.00935684 0.00902336 0.00880719 0.00870652 0.00869707 0.00879686 0.00902819 0.00944872 0.0101 0.0109992 0.0122105 0.013539 0.0149363 0.0157868 0.0159321 0.0152699 0.0139365 0.0127829 0.0119507 0.0115478 0.0114689 0.0103481 0.0103693 0.0160139 0.0175101 0.0169516 0.018217 0.0169843 0.0134899 0.0117044 0.0109956 0.0100708 0.00943359 0.00934771 0.00924675 0.0092386 0.00930505 0.00945118 0.00969253 0.0100637 0.0105987 0.0112824 0.0121504 0.0130294 0.013878 0.0143792 0.0144626 0.0140916 0.0133601 0.0127694 0.0124424 0.0125701 0.0130429 0.0125941 0.0117261 0.0154162 0.0154861 0.0147874 0.017428 0.0179276 0.0133862 0.011203 0.0109269 0.0101426 0.00964908 0.00969852 0.00967924 0.00973223 0.00984067 0.0100031 0.0102293 0.0105395 0.010953 0.0114518 0.0120521 0.0126346 0.0131821 0.0134994 0.0135678 0.0133772 0.0129995 0.0127438 0.0127517 0.0132975 0.0145014 0.0155832 0.0138705 0.0129259 0.0124775 0.0124144 0.0163642 0.0171709 0.0144018 0.0118361 0.0111559 0.0103223 0.00990984 0.0102045 0.0101755 0.0102268 0.0103274 0.0104713 0.0106617 0.0109093 0.0112235 0.0115866 0.0120048 0.012398 0.0127533 0.012964 0.0130251 0.0129465 0.0127794 0.012756 0.0129478 0.0137404 0.0150957 0.0173529 0.0164847 0.0117711 0.00802124 0.00665333 0.0135789 0.0178214 0.0167173 0.0138671 0.0120837 0.0109658 0.0104263 0.0106528 0.0106195 0.0106611 0.0107426 0.010859 0.0110097 0.0112007 0.0114338 0.0116961 0.0119865 0.012256 0.012496 0.0126456 0.0127056 0.0126913 0.0126375 0.0127122 0.0129402 0.0136824 0.0147167 0.0169255 0.0169663 0.0116296 0.00698794 0.00476561 0.0130951 0.0189718 0.0166986 0.0142721 0.0123437 0.0113512 0.0108383 0.0110703 0.0110322 0.0110522 0.0111035 0.0111851 0.0112945 0.0114351 0.0116047 0.0117933 0.0119959 0.0121825 0.0123453 0.0124517 0.0125029 0.0125114 0.0124995 0.0125665 0.0127226 0.0131504 0.0136697 0.0146337 0.0145963 0.0124588 0.0104472 0.00895532 0.0139021 0.0165795 0.0148764 0.0134686 0.0122046 0.0115671 0.0112048 0.0114437 0.0113888 0.0113816 0.0114025 0.0114518 0.0115253 0.011625 0.0117448 0.0118785 0.0120179 0.0121468 0.012258 0.0123359 0.0123821 0.0124072 0.012428 0.0125038 0.0126506 0.012955 0.0133333 0.0137979 0.0139306 0.0127594 0.011827 0.0109435 0.0135881 0.0145363 0.0137688 0.0130078 0.0122531 0.0118335 0.0115638 0.0117579 0.0116873 0.011656 0.0116508 0.0116731 0.0117174 0.0117843 0.0118651 0.0119557 0.0120453 0.0121271 0.0121938 0.0122417 0.0122716 0.0122909 0.0123103 0.0123562 0.0124498 0.0126088 0.0128403 0.0130428 0.0132163 0.0127745 0.0127086 0.0121777 0.0135468 0.0136722 0.0133081 0.0128362 0.0123758 0.0120818 0.0118732 0.0120119 0.0119273 0.0118772 0.0118529 0.0118558 0.0118788 0.0119208 0.0119701 0.0120239 0.0120694 0.0121071 0.0121316 0.0121495 0.0121633 0.0121804 0.0122066 0.0122521 0.0123371 0.0124527 0.0126439 0.0127724 0.0129692 0.0127457 0.0128159 0.0125255 0.0132144 0.0131925 0.0130768 0.0127973 0.0125212 0.0123033 0.0121298 
        </DataArray>
        <DataArray Name="vz" NumberOfComponents="1" type="Float32" format="ascii">
0 0 0 0 0 0 0 0 0 0 0 0 0 0 0 0 0 0 0 0 0 0 0 0 0 0 0 0 0 0 0 0 0 0 0 0 0 0 0 0 0 0 0 0 0 0 0 0 0 0 0 0 0 0 0 0 0 0 0 0 0 0 0 0 0 0 0 0 0 0 0 0 0 0 0 0 0 0 0 0 0 0 0 0 0 0 0 0 0 0 0 0 0 0 0 0 0 0 0 0 0 0 0 0 0 0 0 0 0 0 0 0 0 0 0 0 0 0 0 0 0 0 0 0 0 0 0 0 0 0 0 0 0 0 0 0 0 0 0 0 0 0 0 0 0 0 0 0 0 0 0 0 0 0 0 0 0 0 0 0 0 0 0 0 0 0 0 0 0 0 0 0 0 0 0 0 0 0 0 0 0 0 0 0 0 0 0 0 0 0 0 0 0 0 0 0 0 0 0 0 0 0 0 0 0 0 0 0 0 0 0 0 0 0 0 0 0 0 0 0 0 0 0 0 0 0 0 0 0 0 0 0 0 0 0 0 0 0 0 0 0 0 0 0 0 0 0 0 0 0 0 0 0 0 0 0 0 0 0 0 0 0 0 0 0 0 0 0 0 0 0 0 0 0 0 0 0 0 0 0 0 0 0 0 0 0 0 0 0 0 0 0 0 0 0 0 0 0 0 0 0 0 0 0 0 0 0 0 0 0 0 0 0 0 0 0 0 0 0 0 0 0 0 0 0 0 0 0 0 0 0 0 0 0 0 0 0 0 0 0 0 0 0 0 0 0 0 0 0 0 0 0 0 0 0 0 0 0 0 0 0 0 0 0 0 0 0 0 0 0 0 0 0 0 0 0 0 0 0 0 0 0 0 0 0 0 0 0 0 0 0 0 0 0 0 0 0 0 0 0 0 0 0 0 0 0 0 0 0 0 0 0 0 0 0 0 0 0 0 0 0 0 0 0 0 0 0 0 0 0 0 0 0 0 0 0 0 0 0 0 0 0 0 0 0 0 0 0 0 0 0 0 0 0 0 0 0 0 0 0 0 0 0 0 0 0 0 0 0 0 0 0 0 0 0 0 0 0 0 0 0 0 0 0 0 0 0 0 0 0 0 0 0 0 0 0 0 0 0 0 0 0 0 0 0 0 0 0 0 0 0 0 0 0 0 0 0 0 0 0 0 0 0 0 0 0 0 0 0 0 0 0 0 0 0 0 0 0 0 0 0 0 0 0 0 0 0 0 0 0 0 0 0 0 0 0 0 0 0 0 0 0 0 0 0 0 0 0 0 0 0 0 0 0 0 0 0 0 0 0 0 0 0 0 0 0 0 0 0 0 0 0 0 0 0 0 0 0 0 0 0 0 0 0 0 0 0 0 0 0 0 0 0 0 0 0 0 0 0 0 0 0 0 0 0 0 0 0 0 0 0 0 0 0 0 0 0 0 0 0 0 0 0 0 0 0 0 0 0 0 0 0 0 0 0 0 0 0 0 0 0 0 0 0 0 0 0 0 0 0 0 0 0 0 0 0 0 0 0 0 0 0 0 0 0 0 0 0 0 0 0 0 0 0 0 0 0 0 0 0 0 0 0 0 0 0 0 0 0 0 0 0 0 0 0 0 0 0 0 0 0 0 0 0 0 0 0 0 0 0 0 0 0 0 0 0 0 0 0 0 0 0 0 0 0 0 0 0 0 0 0 0 0 0 0 0 0 0 0 0 0 0 0 0 0 0 0 0 0 0 0 0 0 0 0 0 0 0 0 0 0 0 0 0 0 0 0 0 0 0 0 0 0 0 0 0 0 0 0 0 0 0 0 0 0 0 0 0 0 0 0 0 0 0 0 0 0 0 0 0 0 0 0 0 0 0 0 0 0 0 0 0 0 0 0 0 0 0 0 0 0 0 0 0 0 0 0 0 0 0 0 0 0 0 0 0 0 0 0 0 0 0 0 0 0 0 0 0 0 0 0 0 0 0 0 0 0 0 0 0 0 0 0 0 0 0 0 0 0 0 0 0 0 0 0 0 0 0 0 0 0 0 0 0 0 0 0 0 0 0 0 0 0 0 0 0 0 0 0 0 0 0 0 0 0 0 0 0 0 0 0 0 0 0 0 0 0 0 0 0 0 0 0 0 0 0 0 0 0 0 0 0 0 0 0 0 0 0 0 0 0 0 0 0 0 0 0 0 0 0 0 0 0 0 0 0 0 0 0 0 0 0 0 0 0 0 0 0 0 0 0 0 0 0 0 0 0 0 0 0 0 0 0 0 0 0 0 0 0 0 0 0 0 0 0 0 0 0 0 0 0 0 0 0 
        </DataArray>
        <DataArray Name="p" NumberOfComponents="1" type="Float32" format="ascii">