<?xml version="1.0"?>
<VTKFile type="StructuredGrid" version="0.1" byte_order="LittleEndian">
  <StructuredGrid WholeExtent="0 32 0 32 0 1">
    <Piece Extent="0 32 0 32 0 1">
      <PointData>
      </PointData>
      <CellData>
        <DataArray Name="vx" NumberOfComponents="1" type="Float32" format="ascii">
0.0201506 0.0199565 0.0197731 0.0195926 0.0194117 0.0192315 0.0190568 0.0188976 0.0187705 0.018691 0.0186812 0.0187504 0.0188987 0.0191133 0.0193517 0.0196008 0.0198144 0.0200243 0.0201894 0.0204136 0.0205869 0.0209109 0.0211235 0.0214266 0.0217529 0.0217292 0.0215459 0.0212746 0.0210813 0.0208081 0.0205861 0.0203532 0.0199827 0.0198153 0.0196527 0.0194827 0.0193016 0.0191089 0.018913 0.0187259 0.0185737 0.0184783 0.0184773 0.0185868 0.0188155 0.0191457 0.0195075 0.0198754 0.0201826 0.0204554 0.0206611 0.0208786 0.0210335 0.0212564 0.021392 0.021544 0.02166 0.021559 0.0213594 0.0210745 0.0208422 0.0205739 0.0203626 0.0201561 0.0198106 0.0196653 0.019516 0.0193447 0.019148 0.0189221 0.0186819 0.0184411 0.0182419 0.018113 0.018121 0.0182959 0.0186564 0.0191739 0.0197282 0.0202731 0.0207055 0.021049 0.0212894 0.0214921 0.0216156 0.0217449 0.0217805 0.0217762 0.0217011 0.0214848 0.0212087 0.0208804 0.0206095 0.0203395 0.0201394 0.0199573 0.0196375 0.019511 0.0193682 0.019184 0.0189551 0.0186751 0.0183671 0.0180479 0.0177756 0.0175858 0.0175898 0.0178327 0.0183846 0.0192013 0.0200591 0.0208709 0.0214631 0.0218753 0.0221271 0.0222817 0.0223376 0.0223525 0.0222597 0.0220916 0.0218378 0.0214863 0.0210937 0.0206947 0.0203798 0.0201022 0.0199151 0.0197575 0.0194591 0.0193561 0.0192212 0.0190193 0.0187483 0.0183946 0.0179926 0.017549 0.0171424 0.0168017 0.016736 0.0170573 0.0179037 0.0192008 0.0205417 0.0217704 0.0225826 0.0230395 0.0232458 0.0232836 0.0232157 0.0230783 0.0228282 0.0224722 0.0220217 0.0215105 0.0209611 0.0204724 0.0201123 0.0198307 0.0196677 0.0195436 0.0192875 0.0192181 0.0190973 0.0188792 0.0185638 0.0181307 0.0176155 0.017005 0.0163564 0.0156934 0.0153846 0.0156224 0.0168656 0.0190111 0.0212192 0.0231679 0.024278 0.0247171 0.0247569 0.0245256 0.0242214 0.0238482 0.0233749 0.0227683 0.0220952 0.0214194 0.0206944 0.0201313 0.0197559 0.0195001 0.0193905 0.0193204 0.0191367 0.0191299 0.0190516 0.0188438 0.0185085 0.0179998 0.0173333 0.0163933 0.0151917 0.013697 0.0127341 0.0128815 0.0148789 0.0184708 0.0221442 0.0253405 0.0269882 0.0272862 0.0268895 0.0260664 0.0252912 0.024535 0.0237837 0.0228868 0.0219674 0.0211296 0.0201764 0.0195636 0.0192285 0.0190584 0.0190578 0.0190833 0.0190437 0.0191265 0.0191211 0.0189599 0.0186422 0.018084 0.017214 0.015774 0.013573 0.0107434 0.00879908 0.008418 0.0114056 0.0172573 0.0231389 0.0283564 0.0308967 0.0310756 0.0300005 0.0280631 0.0264268 0.0250143 0.0238212 0.0224401 0.0212802 0.0204252 0.019259 0.0187113 0.0185313 0.0185398 0.018712 0.0188739 0.0190369 0.019267 0.0194035 0.0193763 0.0191689 0.0186187 0.0174946 0.0152338 0.0115288 0.00669969 0.00426219 0.00559108 0.0104038 0.0170698 0.0234596 0.0301685 0.034441 0.0352227 0.0337033 0.0303375 0.0273839 0.0250099 0.0233157 0.0214527 0.0200962 0.0193532 0.0178953 0.0174773 0.0175942 0.0178998 0.0183346 0.0186977 0.0191827 0.0195684 0.0198839 0.0200572 0.0200617 0.0196568 0.0184643 0.0158997 0.011693 0.00862904 0.01038 0.0163672 0.0214018 0.0237805 0.0254059 0.0279087 0.0319138 0.0356475 0.036166 0.0319292 0.0277496 0.0241746 0.0216326 0.0183889 0.0169026 0.0174215 0.0161378 0.0162222 0.016813 0.0174739 0.0181524 0.0186914 0.019457 0.0200505 0.0206254 0.0211507 0.0215984 0.0217831 0.021367 0.0202115 0.018965 0.0222858 0.0281755 0.0318471 0.0311894 0.0269067 0.0227109 0.0194957 0.020442 0.0264764 0.0320161 0.0300225 0.0255214 0.0212614 0.0189805 0.0163359 0.0142587 0.0147402 0.0139699 0.0148086 0.0160596 0.0171256 0.0180575 0.0187936 0.0199147 0.0206339 0.0214416 0.0223324 0.0233747 0.024458 0.0258005 0.0275247 0.0310743 0.0367516 0.0397765 0.0381788 0.0329941 0.0264304 0.0203114 0.0141967 0.0111696 0.0110925 0.0178404 0.0222845 0.0203318 0.0178773 0.0174419 0.019281 0.0178388 0.0140214 0.0125922 0.0150285 0.0165924 0.0176829 0.0185213 0.0192279 0.0203598 0.0212039 0.0222276 0.0235189 0.0251717 0.0274058 0.0306056 0.0352729 0.0408663 0.0437816 0.0418865 0.0372263 0.0313643 0.0252084 0.0193969 0.0134277 0.00836827 0.00415417 0.00420716 0.00877549 0.0119785 0.0120049 0.0137916 0.0177838 0.0188342 0.0179391 0.0171947 0.0173879 0.0177222 0.018467 0.0190016 0.0196716 0.0207916 0.0215882 0.0226561 0.0240997 0.0260531 0.028799 0.0329947 0.0383609 0.043357 0.044451 0.0406957 0.0351694 0.0294297 0.0239096 0.0187288 0.013573 0.00843738 0.00386777 -0.000733462 0.00201875 0.00946247 0.0156971 0.0216181 0.022339 0.0241243 0.0257773 0.0234008 0.0214158 0.0203101 0.0200197 0.0199532 0.0202823 0.0209757 0.0217079 0.0227315 0.0241964 0.0261736 0.0292253 0.0336012 0.0405743 0.0459112 0.0449503 0.0398052 0.0335763 0.0279025 0.0226165 0.0176387 0.012756 0.00736969 0.00211298 -0.00441902 -0.00328472 0.00437359 0.0115506 0.0154553 0.0161751 0.0219034 0.0240228 0.0223795 0.0219222 0.0208059 0.0205066 0.0203251 0.0205512 0.020919 0.0214786 0.0222817 0.0234701 0.0249984 0.0274294 0.03075 0.0366479 0.0429465 0.043926 0.0391354 0.0325932 0.0268081 0.021388 0.0164319 0.0116006 0.00680803 0.00219263 -0.000412985 0.00227253 0.00634456 0.0106142 0.0113409 0.0128014 0.0132672 0.0144234 0.0196784 0.0207937 0.0208701 0.0206627 0.0205242 0.0206279 0.0207249 0.0210618 0.0215779 0.0223053 0.0232336 0.024421 0.0260129 0.0284875 0.032818 0.0381421 0.037434 0.0316695 0.0258604 0.019956 0.0145191 0.00920118 0.00437445 0.000213199 9.97439e-05 0.00489437 0.00867335 0.0123357 0.0135069 0.0152527 0.015112 0.0161236 0.0204976 0.0209132 0.0209873 0.0207283 0.0205786 0.0205715 0.02039 0.0204861 0.0206399 0.0208393 0.0209245 0.0208546 0.0199888 0.018915 0.0178478 0.0247449 0.0303412 0.0277438 0.0237887 0.0178485 0.0123707 0.00733017 0.00459822 0.00414794 0.00783959 0.0130722 0.0150253 0.0167545 0.0171624 0.0183766 0.0187964 0.0191839 0.0209175 0.0209078 0.0208967 0.0206323 0.0204727 0.0203781 0.0201079 0.0200132 0.019907 0.0197165 0.0193805 0.0185891 0.0170654 0.0142472 0.0117353 0.0142238 0.0184912 0.0202668 0.0197538 0.0161567 0.0129921 0.0111312 0.012053 0.0181087 0.0236019 0.0234988 0.021727 0.0208163 0.0202097 0.0205581 0.0203624 0.0201886 0.0210177 0.0208417 0.0207585 0.020509 0.0203468 0.0202002 0.019874 0.019629 0.0192908 0.0187777 0.0180406 0.0167864 0.0148378 0.0111485 0.0076695 0.00297454 0.00482491 0.011917 0.0151403 0.0177453 0.020314 0.0232067 0.0274143 0.0318699 0.0316708 0.0279221 0.0246266 0.0229156 0.0218621 0.0217185 0.0209773 0.0202037 0.0206101 0.0205027 0.0204478 0.0203013 0.0201842 0.0200358 0.0197774 0.0194624 0.0190171 0.0183766 0.0175416 0.0163131 0.0146433 0.0117634 0.00843404 0.0039103 0.00363142 0.00840358 0.0136241 0.0197374 0.0248271 0.0302473 0.0339153 0.0341615 0.0317841 0.0281874 0.0252095 0.0237056 0.0225449 0.0221716 0.0202091 0.0185244 0.0196131 0.0199152 0.020025 0.0200941 0.0200602 0.019959 0.0198584 0.0194885 0.0189695 0.0182622 0.0173883 0.0162564 0.0149314 0.0130168 0.0110533 0.00861924 0.00813829 0.0106665 0.0151676 0.0210614 0.0260077 0.030048 0.0317614 0.0311473 0.0291511 0.0265919 0.0244963 0.0234776 0.0224078 0.021852 0.019284 0.0161393 0.0173759 0.0190275 0.0196711 0.0200967 0.0201425 0.0200714 0.0200282 0.01964 0.0191103 0.0184245 0.0176112 0.0166423 0.0156016 0.0143513 0.0131927 0.0120296 0.0119856 0.0135944 0.0165431 0.0204679 0.0239879 0.0265977 0.0276224 0.0272979 0.0261633 0.0247217 0.0236138 0.0233014 0.0228313 0.0204613 0.0205558 0.0188447 0.0178453 0.0198353 0.0198605 0.0204158 0.0203624 0.0202772 0.0204349 0.0199546 0.0193899 0.0187276 0.0179839 0.0171613 0.0163356 0.0154873 0.0148281 0.0143365 0.0145183 0.0155944 0.0174516 0.0198548 0.022081 0.023766 0.0245556 0.0245736 0.0240124 0.0231438 0.022255 0.0211499 0.0212818 0.0208892 0.0226277 0.0255444 0.0270401 0.0258529 0.0229435 0.0220634 0.021322 0.0208772 0.0206326 0.0201653 0.0196344 0.0190422 0.0184007 0.0177272 0.0170748 0.0164689 0.0160385 0.015818 0.0160362 0.0167716 0.0179541 0.0194078 0.0207914 0.0218448 0.0223887 0.0223928 0.0220073 0.021228 0.02003 0.0197225 0.0204605 0.019713 0.0207073 0.023811 0.0262328 0.0261695 0.0237532 0.0222948 0.0215536 0.0210741 0.0208537 0.020385 0.0198745 0.0193409 0.0187876 0.0182363 0.0177205 0.0172736 0.0169747 0.0168595 0.0170387 0.0175319 0.0182978 0.019207 0.0200897 0.0207662 0.0211685 0.0212223 0.0210978 0.020669 0.0200195 0.019622 0.0214128 0.0209177 0.020064 0.0215527 0.0250603 0.0263431 0.0235286 0.0225138 0.0217707 0.0213201 0.0207899 0.0204198 0.0199892 0.0195402 0.0190821 0.0186404 0.0182357 0.0178984 0.0176734 0.0175913 0.017705 0.0180147 0.0184937 0.0190457 0.0195862 0.0199818 0.0202307 0.0202136 0.0202367 0.0198252 0.0201675 0.0178872 0.0194739 0.0202646 0.015905 0.0154213 0.0159977 0.0179525 0.0198818 0.0209263 0.0211419 0.0210683 0.0207441 0.0204304 0.020059 0.0196776 0.0192963 0.0189388 0.0186174 0.0183559 0.0181797 0.01811 0.0181729 0.018362 0.0186599 0.0190001 0.0193349 0.0195758 0.0197254 0.0197135 0.0197035 0.0195143 0.0195559 0.0183381 0.0153074 0.0153756 0.0151087 0.0170623 0.0165429 0.0155795 0.0191717 0.0202307 0.0208995 0.0209362 0.0207079 0.0204009 0.0200699 0.0197443 0.0194273 0.0191361 0.0188769 0.0186672 0.0185212 0.0184533 0.0184765 0.0185843 0.0187643 0.0189724 0.0191786 0.0193315 0.019432 0.0194716 0.0195333 0.0197038 0.0200317 0.0208074 0.0191615 0.0200689 0.024062 0.0245652 0.0205743 0.0187901 0.0205477 0.020849 0.0210907 0.0209527 0.020603 0.0203225 0.0200357 0.0197597 0.019495 0.0192536 0.0190387 0.0188634 0.0187371 0.0186707 0.0186723 0.0187376 0.0188577 0.0190044 0.0191529 0.0192747 0.0193553 0.0194125 0.0194511 0.019615 0.0197911 0.0205391 0.0202654 0.0212153 0.0237037 0.0235092 0.0212107 0.0203785 0.0210152 0.0210251 0.0210494 0.0208516 0.0204773 0.0202187 0.0199693 0.0197336 0.0195092 0.0193029 0.0191168 0.0189611 0.0188443 0.0187763 0.0187653 0.0188109 0.0189065 0.0190343 0.0191701 0.0193 0.0194004 0.0195072 0.0195912 0.0198093 0.0199905 0.0205912 0.0207065 0.0213178 0.0223879 0.0223038 0.0216243 0.0212515 0.0213621 0.021156 0.0209921 0.0207335 0.0203183 0.020093 0.0198802 0.0196772 0.0194812 0.0192957 0.0191236 0.0189741 0.0188581 0.0187872 0.0187741 0.0188225 0.0189292 0.0190814 0.019249 0.0194223 0.0195665 0.0197171 0.019832 0.0200417 0.020203 0.0206299 0.0208678 0.0213603 0.0220297 0.0220432 0.0217142 0.0213974 0.0212809 0.0210158 0.0208024 0.0205497 
        </DataArray>
        <DataArray Name="vy" NumberOfComponents="1" type="Float32" format="ascii">
0.0121569 0.0121114 0.0120902 0.012089 0.0121058 0.0121353 0.0121663 0.0121916 0.0121934 0.0121714 0.012112 0.0120376 0.0119486 0.011885 0.0118522 0.0118643 0.011928 0.0120424 0.0122186 0.0124696 0.0127464 0.0131068 0.0132841 0.0135952 0.0134261 0.0131524 0.0128551 0.0127516 0.0125676 0.0124366 0.0123171 0.0122233 0.0123426 0.0122875 0.0122631 0.0122654 0.0122866 0.0123189 0.012342 0.0123466 0.0123038 0.0122191 0.0120702 0.0119063 0.0117289 0.0116147 0.0115633 0.0115921 0.0116888 0.0118351 0.0120262 0.0122758 0.0125335 0.012861 0.0130636 0.0133365 0.0133237 0.0132602 0.0131048 0.0129967 0.0128298 0.0126813 0.0125421 0.0124271 0.0124986 0.0124393 0.0124213 0.0124388 0.0124767 0.0125233 0.012546 0.0125318 0.0124379 0.0122724 0.0120017 0.0117079 0.0113895 0.0111989 0.0111247 0.0111904 0.0113538 0.0115608 0.0118035 0.0120864 0.0123755 0.0127252 0.0129973 0.013302 0.0134054 0.0134493 0.0133707 0.013261 0.0130899 0.0129109 0.0127416 0.0125998 0.0126377 0.0125828 0.0125853 0.0126364 0.0127104 0.0127898 0.0128227 0.0127924 0.0126276 0.0123456 0.0118763 0.0113742 0.0108392 0.0105432 0.0104579 0.0106092 0.0109124 0.011243 0.0115869 0.0119423 0.0122887 0.0126925 0.0130422 0.0134164 0.0136189 0.01375 0.0137182 0.0135856 0.0133801 0.0131451 0.0129299 0.0127537 0.0127448 0.0127055 0.012745 0.0128495 0.0129797 0.0131094 0.013166 0.0131252 0.0128943 0.0124714 0.0117513 0.0109422 0.0100165 0.0095405 0.00945204 0.00978604 0.0103548 0.0108929 0.0114066 0.0118771 0.0123095 0.012807 0.0132531 0.0137276 0.0139983 0.0141931 0.0141609 0.0139655 0.0136864 0.0133666 0.0130888 0.0128719 0.01283 0.012823 0.0129252 0.0131154 0.0133377 0.0135543 0.0136679 0.0136517 0.013361 0.0127609 0.0115836 0.0102122 0.00866167 0.00791319 0.00787814 0.0085661 0.00964713 0.0105726 0.0113421 0.0119715 0.0124781 0.0130919 0.0136227 0.0142461 0.0145642 0.0148372 0.0147585 0.0144421 0.0140339 0.0135889 0.0132261 0.0129618 0.0128453 0.0128908 0.0130782 0.0133785 0.0137187 0.0140533 0.0142828 0.0143879 0.014204 0.0134822 0.0118224 0.00956679 0.00661271 0.00523069 0.00526677 0.00670544 0.00880393 0.0103968 0.0116125 0.0124362 0.0129749 0.0137065 0.0142903 0.0150653 0.0152843 0.0156225 0.0154054 0.0148951 0.0143057 0.0137169 0.0132672 0.0129661 0.012792 0.012913 0.0132171 0.0136673 0.0141876 0.0147395 0.0152739 0.015798 0.0160175 0.0152251 0.0122692 0.00806738 0.0029758 0.000684576 0.00102051 0.00375438 0.00774769 0.0106692 0.0125544 0.0135813 0.0139337 0.0146489 0.0151642 0.0161381 0.0162625 0.016741 0.0163019 0.0154394 0.0145571 0.0137725 0.0132181 0.0128865 0.0125864 0.0128052 0.0132364 0.0138495 0.0145837 0.0154717 0.0165913 0.0180309 0.0192564 0.0183588 0.0141776 0.00734598 -0.0022837 -0.00638874 -0.00599174 -0.0012314 0.00603753 0.0112041 0.0146993 0.016101 0.0159898 0.0165 0.0167504 0.0177648 0.01709 0.0177468 0.0169534 0.0156254 0.0144216 0.0135078 0.0129181 0.0126177 0.0122394 0.0125564 0.0131187 0.0139125 0.0149599 0.0164194 0.0186718 0.0217514 0.0244595 0.0224612 0.012751 0.00185334 -0.00888923 -0.0123248 -0.0119244 -0.00697167 0.00290786 0.0114073 0.017375 0.0198806 0.0190228 0.0187798 0.0184687 0.0195097 0.0183424 0.0192818 0.018055 0.0158794 0.0141551 0.0130805 0.0124535 0.0122012 0.0116926 0.01209 0.0127344 0.0136576 0.0149702 0.017042 0.0203536 0.0247568 0.0265713 0.0199684 0.00672513 -0.00331695 -0.00951226 -0.0104484 -0.010277 -0.0080357 -0.00186597 0.00651796 0.0189334 0.0247792 0.0237455 0.0230489 0.0224566 0.0222291 0.0178732 0.0185865 0.0178099 0.0150533 0.0130628 0.0121313 0.0116615 0.0115582 0.0110088 0.0114068 0.012038 0.0129556 0.0143667 0.0166599 0.0203364 0.0240889 0.022465 0.012984 0.00326767 -0.00149479 -0.00371992 -0.00397067 -0.00430737 -0.00449687 -0.00362072 -0.000205539 0.0132583 0.0261257 0.0272422 0.0252791 0.023563 0.0245374 0.0200353 0.0206067 0.0172158 0.013872 0.0117754 0.0111588 0.0108289 0.0108397 0.010257 0.0105429 0.0110127 0.0117003 0.0128097 0.0145533 0.0172483 0.0192504 0.0174993 0.0112482 0.00569309 0.00321884 0.00235425 0.00220946 0.00189534 0.00113954 0.000786338 0.000405604 0.00803669 0.0231235 0.0278722 0.0264878 0.0203034 0.0217372 0.0216086 0.0240872 0.0164534 0.0119601 0.0104757 0.0102184 0.0100774 0.0101289 0.00950455 0.00956739 0.00975074 0.0100422 0.0105533 0.0112803 0.0126783 0.0139437 0.0139995 0.0117372 0.00979392 0.00878706 0.00827202 0.00788327 0.00740798 0.00647979 0.00545081 0.00386446 0.00779563 0.0182614 0.0237601 0.0235772 0.0170967 0.0212342 0.020519 0.0228848 0.0178619 0.0125925 0.0105492 0.00990873 0.00965621 0.00953472 0.0089064 0.00865186 0.00846829 0.00826443 0.00804032 0.00751187 0.00748865 0.00853645 0.0115013 0.0140999 0.01521 0.0145202 0.0137444 0.0129739 0.0123372 0.0115793 0.0107065 0.00987858 0.0108793 0.0126112 0.0144178 0.0150233 0.0132485 0.0192378 0.0161645 0.0244433 0.0214096 0.0150061 0.0119146 0.0104483 0.00973258 0.00923452 0.00837461 0.00783893 0.00729439 0.00663996 0.0056231 0.00396456 0.0016715 0.00190453 0.00971696 0.0173602 0.0210949 0.0204424 0.0191828 0.0180036 0.0171593 0.0165628 0.0158588 0.0150909 0.0125928 0.00940206 0.0093267 0.0119332 0.0126619 0.0158637 0.0134308 0.0226467 0.019372 0.0142181 0.0119833 0.0105189 0.00966012 0.0089435 0.00803046 0.00726494 0.00645371 0.00548207 0.00400814 0.00158661 -0.00212509 -0.00399637 0.00432328 0.0179535 0.0270434 0.0268127 0.0251599 0.0234283 0.0222361 0.0214543 0.0202136 0.0178034 0.01077 0.0063055 0.00570876 0.00943698 0.0118179 0.0154872 0.014814 0.0175584 0.015962 0.0136442 0.0120757 0.0107295 0.00971882 0.00881224 0.0078984 0.00700288 0.00607727 0.00502946 0.00358299 0.00131696 -0.00218489 -0.00462983 0.000224557 0.0123996 0.0276818 0.0315894 0.0309076 0.0291841 0.02781 0.0266891 0.0247225 0.0197554 0.00711605 0.001005 0.0018641 0.00685519 0.0103761 0.0137369 0.0140595 0.0159986 0.0149241 0.0135746 0.012243 0.010956 0.00984353 0.00881821 0.00791539 0.00699694 0.00608605 0.00513875 0.00396099 0.00236457 -0.000241358 -0.0021628 -0.00142137 0.00482196 0.0254183 0.0328141 0.0353807 0.0348815 0.0328025 0.0293561 0.023515 0.0138534 0.00207364 -0.000841358 0.00244208 0.00708476 0.0104899 0.013325 0.0143047 0.0151506 0.0144702 0.0135754 0.0123694 0.0111308 0.00996374 0.00888628 0.00809554 0.00721814 0.00639871 0.00560472 0.00477268 0.00376099 0.0023327 0.000825955 0.000813075 0.00514431 0.0216282 0.0293446 0.0353117 0.0356428 0.0326273 0.0275676 0.0178943 0.00825061 0.00262888 0.00220813 0.00480034 0.00813646 0.010949 0.0133244 0.0149128 0.0149921 0.0144147 0.0137903 0.0126033 0.011381 0.0101626 0.00906564 0.00831206 0.00756488 0.00691521 0.00635198 0.00588352 0.00549594 0.00518146 0.00497896 0.00599019 0.00840198 0.0167286 0.0234587 0.0294732 0.0301581 0.0272547 0.0225177 0.0146546 0.0092486 0.00596065 0.00593686 0.00761562 0.0096894 0.0118582 0.0139645 0.0159658 0.0154081 0.0142078 0.0136962 0.0125238 0.0113856 0.0102081 0.00918811 0.00860616 0.0079955 0.00750327 0.0071178 0.00686661 0.00676272 0.00691105 0.0072719 0.00852728 0.0105807 0.0156129 0.0196607 0.023437 0.0241688 0.0222197 0.0185486 0.0139634 0.0106475 0.00876111 0.00862518 0.00940031 0.0107 0.0125748 0.015349 0.0191054 0.0151532 0.0130612 0.0135199 0.0124313 0.0114424 0.0103126 0.00937871 0.00886709 0.00843757 0.00812102 0.0079141 0.007843 0.00793413 0.0083 0.00889886 0.0101212 0.0116337 0.0145175 0.0168904 0.0190765 0.0195066 0.0184435 0.0163422 0.0136912 0.0117723 0.0106045 0.0104946 0.0107691 0.0115316 0.013811 0.0169735 0.0218497 0.0174857 0.0115379 0.0111617 0.0112095 0.010882 0.010144 0.00944987 0.00926749 0.00893696 0.00873288 0.0086385 0.00866098 0.00882029 0.00920012 0.00978378 0.0107773 0.0119656 0.0137593 0.0152119 0.0164323 0.0166871 0.0160922 0.0148363 0.0132838 0.0121089 0.0113715 0.0112187 0.0109893 0.0121429 0.0146027 0.0177152 0.0199641 0.0178261 0.011031 0.0125591 0.0120442 0.0112714 0.0105023 0.00979138 0.00974064 0.00946078 0.00932901 0.00930867 0.00938784 0.00957796 0.0099284 0.01043 0.0111858 0.0120429 0.0131727 0.0140773 0.0147961 0.0149303 0.0145786 0.0138272 0.0129337 0.0123054 0.0120108 0.0122055 0.012006 0.0125273 0.0138896 0.0170476 0.0169822 0.0147957 0.0103868 0.0154566 0.0140945 0.0123952 0.0111506 0.010283 0.0102004 0.00995378 0.00986674 0.00988386 0.0099816 0.0101639 0.0104557 0.010854 0.0114026 0.0120183 0.0127434 0.0133295 0.0137606 0.0138449 0.0136403 0.0132006 0.0127213 0.0124744 0.0125755 0.0132291 0.0130858 0.0115238 0.0148205 0.0169297 0.0151915 0.0121863 0.00758707 0.0164081 0.0161301 0.0135423 0.0117839 0.0107523 0.0106476 0.0104262 0.0103619 0.0103896 0.010484 0.0106433 0.0108773 0.0111836 0.0115758 0.012005 0.0124734 0.0128493 0.0131125 0.0131589 0.0130337 0.0127631 0.0125074 0.012401 0.0126285 0.0131974 0.0133916 0.0105478 0.0124328 0.0189149 0.0165386 0.011503 0.0050751 0.0165298 0.0170864 0.0140585 0.0122314 0.011166 0.0108809 0.01077 0.0107558 0.0107979 0.0108849 0.0110165 0.0111974 0.0114262 0.0117027 0.0120003 0.0123051 0.0125508 0.0127166 0.0127509 0.0126893 0.0125458 0.0124607 0.0124823 0.0128858 0.0134597 0.0146254 0.0130075 0.012302 0.0208915 0.0185947 0.0104857 0.00516385 0.013144 0.0141236 0.0127155 0.0117578 0.0111631 0.0111583 0.0111073 0.0111123 0.0111506 0.0112203 0.0113217 0.0114567 0.0116234 0.011816 0.0120185 0.0122151 0.0123713 0.0124725 0.0124928 0.0124598 0.012381 0.0123635 0.0124232 0.012777 0.0132799 0.0143525 0.014521 0.0147984 0.0186794 0.016515 0.0102171 0.00835895 0.012244 0.0124341 0.0120332 0.0115813 0.0112943 0.0114323 0.0114055 0.0114136 0.0114423 0.0114941 0.0115687 0.0116664 0.0117843 0.0119148 0.0120479 0.0121699 0.0122646 0.012323 0.0123355 0.0123232 0.0122921 0.0123172 0.0124006 0.0126795 0.013047 0.0136809 0.0140579 0.0140064 0.0157025 0.0144657 0.0126043 0.0114399 0.0125974 0.0122296 0.0119436 0.0116665 0.0115043 0.0116966 0.0116743 0.0116749 0.0116907 0.0117255 0.0117779 0.0118459 0.0119256 0.0120076 0.0120855 0.0121475 0.0121894 0.0122064 0.0122016 0.0121904 0.0121806 0.0122202 0.012315 0.0125452 0.0128726 0.0133477 0.0138476 0.0140362 0.0148534 0.0141327 0.0128286 0.0120565 0.0123367 0.0120914 0.0119635 0.011827 0.0117398 0.011945 0.0119107 0.0118986 0.0119029 0.0119251 0.0119621 0.0120082 0.0120578 0.0120987 0.0121277 0.0121332 0.0121232 0.0120962 0.0120697 0.0120541 0.0120596 0.0121119 0.0122152 0.0124041 0.0126748 0.0129962 0.0133932 0.0135219 0.0139727 0.0136049 0.0130982 0.0126301 0.0125908 0.012354 0.0122116 0.0120859 0.0119983 
        </DataArray>
        <DataArray Name="vz" NumberOfComponents="1" type="Float32" format="ascii">
0 0 0 0 0 0 0 0 0 0 0 0 0 0 0 0 0 0 0 0 0 0 0 0 0 0 0 0 0 0 0 0 0 0 0 0 0 0 0 0 0 0 0 0 0 0 0 0 0 0 0 0 0 0 0 0 0 0 0 0 0 0 0 0 0 0 0 0 0 0 0 0 0 0 0 0 0 0 0 0 0 0 0 0 0 0 0 0 0 0 0 0 0 0 0 0 0 0 0 0 0 0 0 0 0 0 0 0 0 0 0 0 0 0 0 0 0 0 0 0 0 0 0 0 0 0 0 0 0 0 0 0 0 0 0 0 0 0 0 0 0 0 0 0 0 0 0 0 0 0 0 0 0 0 0 0 0 0 0 0 0 0 0 0 0 0 0 0 0 0 0 0 0 0 0 0 0 0 0 0 0 0 0 0 0 0 0 0 0 0 0 0 0 0 0 0 0 0 0 0 0 0 0 0 0 0 0 0 0 0 0 0 0 0 0 0 0 0 0 0 0 0 0 0 0 0 0 0 0 0 0 0 0 0 0 0 0 0 0 0 0 0 0 0 0 0 0 0 0 0 0 0 0 0 0 0 0 0 0 0 0 0 0 0 0 0 0 0 0 0 0 0 0 0 0 0 0 0 0 0 0 0 0 0 0 0 0 0 0 0 0 0 0 0 0 0 0 0 0 0 0 0 0 0 0 0 0 0 0 0 0 0 0 0 0 0 0 0 0 0 0 0 0 0 0 0 0 0 0 0 0 0 0 0 0 0 0 0 0 0 0 0 0 0 0 0 0 0 0 0 0 0 0 0 0 0 0 0 0 0 0 0 0 0 0 0 0 0 0 0 0 0 0 0 0 0 0 0 0 0 0 0 0 0 0 0 0 0 0 0 0 0 0 0 0 0 0 0 0 0 0 0 0 0 0 0 0 0 0 0 0 0 0 0 0 0 0 0 0 0 0 0 0 0 0 0 0 0 0 0 0 0 0 0 0 0 0 0 0 0 0 0 0 0 0 0 0 0 0 0 0 0 0 0 0 0 0 0 0 0 0 0 0 0 0 0 0 0 0 0 0 0 0 0 0 0 0 0 0 0 0 0 0 0 0 0 0 0 0 0 0 0 0 0 0 0 0 0 0 0 0 0 0 0 0 0 0 0 0 0 0 0 0 0 0 0 0 0 0 0 0 0 0 0 0 0 0 0 0 0 0 0 0 0 0 0 0 0 0 0 0 0 0 0 0 0 0 0 0 0 0 0 0 0 0 0 0 0 0 0 0 0 0 0 0 0 0 0 0 0 0 0 0 0 0 0 0 0 0 0 0 0 0 0 0 0 0 0 0 0 0 0 0 0 0 0 0 0 0 0 0 0 0 0 0 0 0 0 0 0 0 0 0 0 0 0 0 0 0 0 0 0 0 0 0 0 0 0 0 0 0 0 0 0 0 0 0 0 0 0 0 0 0 0 0 0 0 0 0 0 0 0 0 0 0 0 0 0 0 0 0 0 0 0 0 0 0 0 0 0 0 0 0 0 0 0 0 0 0 0 0 0 0 0 0 0 0 0 0 0 0 0 0 0 0 0 0 0 0 0 0 0 0 0 0 0 0 0 0 0 0 0 0 0 0 0 0 0 0 0 0 0 0 0 0 0 0 0 0 0 0 0 0 0 0 0 0 0 0 0 0 0 0 0 0 0 0 0 0 0 0 0 0 0 0 0 0 0 0 0 0 0 0 0 0 0 0 0 0 0 0 0 0 0 0 0 0 0 0 0 0 0 0 0 0 0 0 0 0 0 0 0 0 0 0 0 0 0 0 0 0 0 0 0 0 0 0 0 0 0 0 0 0 0 0 0 0 0 0 0 0 0 0 0 0 0 0 0 0 0 0 0 0 0 0 0 0 0 0 0 0 0 0 0 0 0 0 0 0 0 0 0 0 0 0 0 0 0 0 0 0 0 0 0 0 0 0 0 0 0 0 0 0 0 0 0 0 0 0 0 0 0 0 0 0 0 0 0 0 0 0 0 0 0 0 0 0 0 0 0 0 0 0 0 0 0 0 0 0 0 0 0 0 0 0 0 0 0 0 0 0 0 0 0 0 0 0 0 0 0 0 0 0 0 0 0 0 0 0 0 0 0 0 0 0 0 0 0 0 0 0 0 0 0 0 0 0 0 0 0 0 0 0 0 0 0 0 0 0 0 0 0 0 0 0 0 0 0 0 0 0 0 0 0 0 0 0 0 0 0 0 0 0 0 0 0 0 0 0 0 0 0 0 0 0 0 0 0 0 0 0 0 0 0 0 0 0 0 0 0 0 0 0 0 
        </DataArray>
        <DataArray Name="p" NumberOfComponents="1" type="Float32" format="ascii">