<?xml version="1.0"?>
<VTKFile type="StructuredGrid" version="0.1" byte_order="LittleEndian">
  <StructuredGrid WholeExtent="0 32 0 32 0 1">
    <Piece Extent="0 32 0 32 0 1">
      <PointData>
      </PointData>
      <CellData>
        <DataArray Name="vx" NumberOfComponents="1" type="Float32" format="ascii">
0.0303376 0.0324463 0.0346292 0.0365426 0.0375567 0.0373014 0.0343647 0.0283476 0.0200048 0.0117271 0.00568579 0.00259237 0.00227467 0.0034594 0.00554073 0.00796303 0.0102273 0.012324 0.0139865 0.0152791 0.0162206 0.017141 0.017938 0.0187469 0.0195947 0.0204407 0.0214135 0.0224325 0.0236431 0.0249661 0.0265597 0.0282942 0.030984 0.0338389 0.0371196 0.0404391 0.0429183 0.0439758 0.0411106 0.0331191 0.0200028 0.00704295 -0.000891584 -0.00404178 -0.00316061 -0.00042502 0.00311119 0.0066894 0.00978991 0.01241 0.0143939 0.0156319 0.0163781 0.0172543 0.0179407 0.0186945 0.0194546 0.0202187 0.0211172 0.0220761 0.0232773 0.0246403 0.0263995 0.0284126 0.0312091 0.0349141 0.0396212 0.0451123 0.050046 0.0545445 0.0523126 0.0401985 0.0202495 0.000436733 -0.0116643 -0.0146917 -0.0108042 -0.00540858 0.000463883 0.00564353 0.00981901 0.0130522 0.015364 0.0163643 0.0167246 0.0174675 0.0179717 0.0186462 0.0192807 0.0199259 0.0207051 0.0215467 0.0226765 0.0240058 0.025866 0.0280988 0.030836 0.0354446 0.0420377 0.0504703 0.059615 0.0693599 0.0701724 0.0556368 0.019686 -0.0157184 -0.0293929 -0.0298265 -0.0210136 -0.0108605 -0.00178084 0.00543426 0.0108387 0.0146737 0.0174729 0.0176407 0.0169214 0.0176316 0.0179614 0.0185841 0.0190719 0.0195522 0.0201527 0.0208043 0.0217811 0.0229796 0.0248464 0.0272 0.0289223 0.0339472 0.04234 0.054159 0.0690011 0.0923747 0.102459 0.0793934 0.0191555 -0.0401768 -0.0611878 -0.0534151 -0.0325745 -0.0155789 -0.00248781 0.00689722 0.0133572 0.0178481 0.0209149 0.0196232 0.0172624 0.0176917 0.0178978 0.0184692 0.0188017 0.0190793 0.0194366 0.0198023 0.0204915 0.0213721 0.0229965 0.0251273 0.0256277 0.0305347 0.0403707 0.053787 0.0714288 0.0969099 0.106406 0.0688028 0.0231482 -0.0238695 -0.0635053 -0.0587864 -0.0354505 -0.014558 0.000569554 0.0112282 0.0181871 0.0232406 0.0277686 0.0226179 0.0155879 0.0171257 0.0179556 0.0185347 0.0187097 0.018651 0.0186542 0.018622 0.0188906 0.0192956 0.020447 0.0220583 0.0189369 0.0206469 0.0274409 0.025789 0.026738 0.0182115 -0.00287522 -0.00862838 0.0208311 0.0529884 0.0419344 0.0199661 0.0142955 0.0135461 0.0145292 0.0207864 0.0254022 0.0310901 0.0344854 0.0263729 0.017172 0.0182737 0.0188063 0.0185925 0.0185235 0.0180973 0.0176995 0.0171685 0.0168316 0.016462 0.0166475 0.0168781 0.0108192 0.00832614 0.00740454 -0.0131591 -0.0189441 -0.03022 -0.0525686 -0.0252659 0.0217912 0.073135 0.0971167 0.0891591 0.0779143 0.0628454 0.0406709 0.034507 0.0313759 0.0322211 0.0269339 0.0239265 0.0275994 0.0279696 0.0255248 0.021095 0.0195656 0.0179984 0.0169343 0.0157845 0.0147575 0.0135752 0.0125762 0.0112703 0.00110098 -0.00454228 -0.0107909 -0.0257748 -0.0354579 -0.0465128 -0.0511493 -0.0191558 0.0206832 0.0608551 0.095207 0.096592 0.0834137 0.0722621 0.0537975 0.0407273 0.0302137 0.0166606 0.00703394 0.0153016 0.0236199 0.0244255 0.0238765 0.0211328 0.0192671 0.0174351 0.0159189 0.0142276 0.0124383 0.0102695 0.00777593 0.00458471 -0.00530279 -0.0107734 -0.0163285 -0.0163558 -0.035545 -0.0534841 -0.0422176 -0.0142477 0.0197501 0.0521424 0.082597 0.0919181 0.077 0.0625436 0.055861 0.0448736 0.0328348 0.017057 0.00726093 0.0112052 0.0162529 0.0182312 0.0197298 0.0195557 0.0181855 0.0166433 0.0149507 0.0130151 0.01073 0.00800834 0.0044411 0.000425765 -0.0147342 -0.0238554 -0.0421738 -0.0428138 -0.0572249 -0.0668548 -0.042102 -0.014973 0.0179151 0.048499 0.0763519 0.0967102 0.0870197 0.0710911 0.0671675 0.0554995 0.0445784 0.0355385 0.0280072 0.0224387 0.0236151 0.0221544 0.0196787 0.0192488 0.0176726 0.0160885 0.0141757 0.0119507 0.0091555 0.00571403 0.00080918 -0.00498285 -0.0189122 -0.0307038 -0.0606669 -0.0694454 -0.0748276 -0.073863 -0.043664 -0.0155542 0.0173629 0.0479213 0.0756706 0.0994894 0.0953486 0.0863322 0.0796463 0.0617257 0.0517312 0.0447991 0.0393499 0.035289 0.0321502 0.0251523 0.0211351 0.0194717 0.0176213 0.0159468 0.0139669 0.0117107 0.00879369 0.00520712 -0.000240514 -0.00667068 -0.0148853 -0.0246949 -0.0422658 -0.0454351 -0.058749 -0.0666702 -0.0433883 -0.0149556 0.0180987 0.049761 0.0767609 0.0948607 0.0846444 0.073707 0.0727699 0.06087 0.0527696 0.045853 0.0417479 0.0385123 0.0329866 0.0257824 0.0214795 0.0193244 0.0173545 0.0157479 0.0138876 0.0117793 0.00905656 0.00566673 0.000770142 -0.00509679 -0.00543129 -0.0111311 -0.018146 -0.0188754 -0.0321901 -0.0503509 -0.0446867 -0.0148963 0.0197953 0.0544867 0.0829007 0.087776 0.0710099 0.0584385 0.0574809 0.0521546 0.0472517 0.0423967 0.0389953 0.0352207 0.0301138 0.0249265 0.0209037 0.0189516 0.0173037 0.0160109 0.0144825 0.0127821 0.0106229 0.00801231 0.00447464 0.000484881 0.00192927 -0.00352292 -0.00862916 -0.0266372 -0.0344923 -0.046686 -0.0551937 -0.0200727 0.0222512 0.067155 0.0991644 0.0961224 0.0847988 0.0756875 0.0586605 0.0501155 0.0445857 0.0382346 0.0317525 0.0300119 0.0300576 0.0260678 0.0202169 0.0178855 0.0165331 0.0158073 0.0148548 0.0137488 0.012264 0.0103788 0.00807305 0.00513385 0.011274 0.0093329 0.00764382 -0.0112337 -0.0272574 -0.041711 -0.054133 -0.0298952 0.0228227 0.0794519 0.0940342 0.0781242 0.0676697 0.0570095 0.0406753 0.0378068 0.037231 0.0333873 0.0280337 0.0259071 0.0264379 0.0242151 0.0181574 0.0165331 0.0164579 0.0164635 0.0161132 0.0155652 0.0147688 0.013811 0.0129049 0.0117801 0.0201262 0.0230121 0.0303395 0.0345259 0.0352328 0.0367368 0.0161812 -0.000498691 0.0240446 0.04797 0.0278539 0.0022226 0.00861213 0.0120179 0.0190982 0.0270673 0.0252446 0.00376143 -0.00830707 0.0118851 0.0445938 0.0510777 0.0285773 0.0170714 0.0155706 0.0160591 0.016651 0.0169164 0.0169151 0.0168656 0.0172337 0.0178006 0.0263815 0.0315623 0.0414717 0.0556513 0.0758058 0.101317 0.113799 0.0779144 0.0205629 -0.0421226 -0.0735173 -0.0571336 -0.0331852 -0.0132616 -0.000918652 0.0080605 -0.00573304 -0.0451455 -0.0478377 0.00256927 0.0678988 0.0971965 0.0601957 0.0291637 0.0217321 0.0194355 0.019341 0.0194474 0.0196006 0.0200356 0.021133 0.0228116 0.0295937 0.0346798 0.0429059 0.0544978 0.0691556 0.0884117 0.0966034 0.0749846 0.0145749 -0.0445854 -0.0592296 -0.0468298 -0.0289272 -0.0124906 0.000506741 0.0149074 0.03551 0.0602222 0.0831204 0.0688778 0.0335125 0.0422997 0.0458525 0.0303916 0.0238161 0.0208102 0.0206197 0.020922 0.0213805 0.0222203 0.0237316 0.0258547 0.0313205 0.0357484 0.042034 0.0499213 0.0585841 0.0665464 0.0646937 0.0494282 0.0145196 -0.0189181 -0.0309312 -0.0315789 -0.0248346 -0.0210412 -0.016822 -0.0254351 -0.000912386 0.0488655 0.0622685 0.0344563 -0.0247836 -0.0457816 -0.0104186 0.0192887 0.0237795 0.0249665 0.0234343 0.0232854 0.0233741 0.0242051 0.0257242 0.0278903 0.0315139 0.0349678 0.0393044 0.0442561 0.0485165 0.0517475 0.0485594 0.0365171 0.0160808 -0.00407286 -0.0143562 -0.0166138 -0.0141682 -0.0113999 -0.0068724 -0.000603073 0.0200673 0.0501623 0.0439111 -0.00567191 -0.0532125 -0.0607877 -0.0212713 0.0140506 0.0234461 0.0257185 0.0242547 0.0240225 0.0242355 0.0251553 0.0266499 0.0286523 0.0311899 0.0337816 0.0367134 0.0395837 0.0414922 0.0418299 0.0380113 0.029827 0.0167155 0.00407472 -0.00327447 -0.00643683 -0.00586478 -0.00382306 0.000180806 0.00880931 0.0299297 0.0633115 0.0508784 -0.0217791 -0.0793314 -0.0737969 -0.0269471 0.00694084 0.0167468 0.0212546 0.0223185 0.0234479 0.0243526 0.0255572 0.0270549 0.0288636 0.0304395 0.0323014 0.0341753 0.0357372 0.0363013 0.035595 0.032142 0.0259666 0.0174142 0.00904507 0.00318715 -9.15092e-05 -0.00142493 -0.00217123 -0.0055842 -0.0132688 -0.0414513 -0.0689555 -0.0410386 0.0075022 0.0569132 0.0749834 0.0503505 0.0344077 0.0272469 0.0248113 0.0240126 0.0242463 0.0248422 0.0258345 0.0271249 0.0286349 0.0296584 0.0309963 0.0321712 0.0328968 0.0327582 0.0315247 0.0285144 0.0239419 0.0179814 0.012213 0.00794615 0.00541437 0.00465235 0.00536158 0.00615052 0.00602826 -0.00899052 -0.031812 -0.0212276 0.0217696 0.058486 0.0595543 0.0345162 0.0208604 0.0192852 0.0203723 0.0218261 0.0231582 0.0243548 0.0255798 0.0268787 0.0282204 0.0289294 0.029889 0.0306004 0.0308395 0.030341 0.0289707 0.0263832 0.0227818 0.0184055 0.0141527 0.0107422 0.00848991 0.00747323 0.00765939 0.00873348 0.0111283 0.0117946 0.00899413 0.0109501 0.0196473 0.0248409 0.0224679 0.018439 0.0176155 0.019211 0.0207736 0.0221163 0.0232668 0.0243732 0.0254862 0.0266494 0.0277913 0.0283776 0.0291066 0.0295461 0.0295133 0.0288486 0.027455 0.0251895 0.0222338 0.0187867 0.0154481 0.01268 0.0107757 0.00985283 0.00991315 0.0107831 0.0124971 0.0137659 0.0127806 0.0134429 0.0185771 0.0214744 0.0189827 0.0168174 0.0170817 0.0186505 0.0201593 0.0216211 0.02289 0.0241098 0.0252518 0.0263815 0.027419 0.0280322 0.0286358 0.0289371 0.0287796 0.0280559 0.0266911 0.0246303 0.0220238 0.0190677 0.0161948 0.0137331 0.0119578 0.0109597 0.0107711 0.0112819 0.0124764 0.0139156 0.0147166 0.015413 0.0170219 0.0175917 0.0169625 0.0170522 0.0179291 0.019289 0.0205191 0.0217864 0.0229265 0.0240782 0.0251571 0.0262245 0.0271815 0.0279199 0.0285032 0.0287826 0.0286082 0.0278927 0.0265593 0.0245888 0.0221056 0.0193131 0.0165875 0.0142265 0.0124978 0.0114721 0.0111863 0.0114923 0.0123137 0.0132925 0.0141187 0.0148948 0.0163864 0.0172469 0.0173126 0.0176432 0.0183257 0.0194302 0.0205054 0.0217089 0.0228261 0.0239824 0.0250647 0.0261339 0.0270847 0.0280422 0.0286951 0.0290545 0.0289571 0.0283044 0.0269966 0.0250027 0.022424 0.0194961 0.0166191 0.0141321 0.0123177 0.0112361 0.0109041 0.0111437 0.0118858 0.0128207 0.0138415 0.0147456 0.0158385 0.0165939 0.0171517 0.0178375 0.0186337 0.0196642 0.0206615 0.021783 0.0228516 0.0239842 0.0250672 0.0261586 0.0271491 0.0283871 0.0292144 0.0297718 0.0298632 0.0293472 0.0280752 0.0259533 0.0230499 0.0196543 0.0162972 0.013466 0.0114742 0.0103685 0.0101037 0.0104366 0.0112738 0.0122657 0.0134012 0.0144079 0.0155275 0.0164004 0.0171339 0.0179093 0.0187114 0.0196897 0.0206491 0.0217373 0.022801 0.0239502 0.025078 0.0262468 0.0273452 0.0289265 0.0300378 0.0309305 0.0313602 0.0310956 0.0299206 0.027568 0.0240586 0.0197817 0.0155397 0.0120701 0.00977651 0.00870289 0.00863165 0.00924308 0.0103626 0.0116004 0.0129563 0.0141382 0.0152921 0.0162262 0.0170929 0.0179403 0.0187826 0.0197303 0.020662 0.0217133 0.0227659 0.0239311 0.0251143 0.0263924 0.0276505 0.0296134 0.0311493 0.0325689 0.0335647 0.0337642 0.0328365 0.0302064 0.0257436 0.0198788 0.0140532 0.00962455 0.00699731 0.00611485 0.00648639 0.00763431 0.00926238 0.0109088 0.0125774 0.0139701 0.0152023 0.0161677 0.0170791 0.0179237 0.0187586 0.0196665 0.0205661 0.0215882 0.0226361 0.0238318 0.0250907 0.02652 0.0279991 
        </DataArray>
        <DataArray Name="vy" NumberOfComponents="1" type="Float32" format="ascii">
0.00458689 0.00562133 0.00727889 0.0101714 0.0141567 0.0193155 0.0252925 0.0302483 0.03269 0.0303802 0.0256802 0.01986 0.0146464 0.010601 0.00773073 0.00607714 0.00515581 0.00495545 0.00498745 0.0053785 0.00541818 0.00558977 0.00559407 0.00560757 0.00553013 0.00539593 0.00518297 0.004925 0.00462319 0.00437046 0.00417293 0.00425012 0.00218514 0.00303781 0.00465366 0.0080264 0.013231 0.0204962 0.0304696 0.0385417 0.0424557 0.0388111 0.0311446 0.0214632 0.0138869 0.00842012 0.00501292 0.00333985 0.00269337 0.00292767 0.00342114 0.00430614 0.00451265 0.00481484 0.00484259 0.00484991 0.00474206 0.00453606 0.00422724 0.00382751 0.00334142 0.00286082 0.00238097 0.00216701 -0.000816676 -0.000426932 0.000789302 0.00449323 0.0108667 0.0212507 0.0364038 0.0508367 0.0592829 0.0507179 0.0369108 0.0221457 0.0111199 0.00429077 0.000661185 -0.000605413 -0.00058937 0.000433305 0.00166999 0.00351814 0.00370975 0.00409131 0.00410604 0.00411856 0.00399713 0.00373635 0.00333069 0.00277194 0.00205889 0.00127567 0.00039771 -0.000278061 -0.00475318 -0.00549556 -0.00574268 -0.00277736 0.00358749 0.0174337 0.044887 0.0709043 0.0829503 0.0714039 0.0462059 0.0202329 0.00456549 -0.00300139 -0.0060286 -0.00603951 -0.00478027 -0.00254913 -3.3221e-05 0.00299363 0.00333452 0.00365666 0.00362155 0.00360125 0.00344901 0.00312332 0.00260263 0.00185473 0.000858288 -0.000330564 -0.00177629 -0.00320133 -0.00894885 -0.0113486 -0.0138556 -0.0124619 -0.00693329 0.0119283 0.0516623 0.0996706 0.131546 0.0981762 0.0520008 0.0149944 -0.00735579 -0.0146239 -0.0155048 -0.0131405 -0.00987058 -0.00598448 -0.00152061 0.00433656 0.00364016 0.00308673 0.00303222 0.00302173 0.00297262 0.0026599 0.0020718 0.00116122 -0.000110412 -0.00172978 -0.00379623 -0.00613214 -0.0139146 -0.019141 -0.0268168 -0.0302708 -0.0367541 -0.0195551 0.0537649 0.15444 0.205374 0.153741 0.0544682 -0.0109972 -0.0351678 -0.0334895 -0.0288913 -0.0218731 -0.01594 -0.00997641 -0.00193474 0.00644322 0.00527282 0.00303836 0.00297193 0.00283843 0.00285639 0.0025345 0.00187378 0.000797311 -0.000759574 -0.002862 -0.00566828 -0.00920801 -0.0172337 -0.0254862 -0.0365593 -0.0420053 -0.0472959 -0.0201395 0.0822757 0.180324 0.211855 0.182045 0.0877512 -0.00837664 -0.0505162 -0.0495352 -0.0412716 -0.0305009 -0.0219366 -0.0152666 -0.00121281 0.0163344 0.0103759 9.32733e-05 0.00157818 0.00201173 0.00274876 0.00266932 0.00208097 0.000948623 -0.000756136 -0.00318519 -0.00647773 -0.0110576 -0.0182852 -0.0275106 -0.0334459 -0.0296573 -0.0323441 0.00803078 0.0869575 0.138839 0.151844 0.141072 0.0930832 0.0143136 -0.0313587 -0.0331853 -0.0365776 -0.0322746 -0.026731 -0.0187715 0.0030683 0.0231992 0.0128486 0.000419225 0.00371356 0.00330882 0.00355163 0.0034403 0.00282359 0.00165545 -0.000116815 -0.00273467 -0.00629365 -0.0115521 -0.0143624 -0.0211627 -0.0169182 -0.0129751 -0.0314815 0.0164334 0.0763463 0.100445 0.106587 0.100079 0.0733018 0.0143738 -0.0244603 -0.0109757 -0.0152135 -0.0211043 -0.0196168 -0.0102905 0.00596478 0.0166152 0.00715768 0.00261911 0.00805629 0.00709884 0.00573877 0.00512848 0.00428855 0.00313842 0.00151876 -0.000891394 -0.00404756 -0.00898324 -0.00939411 -0.01562 -0.0118323 -0.00405943 -0.0145918 0.0236434 0.0595832 0.0674677 0.0717034 0.0663519 0.0568217 0.0235535 -0.0100181 -0.00286587 -0.00365723 -0.00791125 -0.00352471 0.00499307 0.00421613 0.00782924 0.00231509 0.000196281 0.00722821 0.00845764 0.00745753 0.00684472 0.00606621 0.0050968 0.00379033 0.00181315 -0.000754956 -0.00503389 -0.00250087 -0.00952259 -0.0108414 0.00463286 0.00599784 0.0242676 0.0373617 0.0379743 0.0397628 0.0367683 0.0346788 0.021683 0.00658907 0.00867352 0.00148512 0.00203222 0.00825099 0.0154202 0.0108139 0.00793043 -0.000526692 -0.00031717 0.00665994 0.00874468 0.00865199 0.00838259 0.00795395 0.00739498 0.00664952 0.00545889 0.00386203 0.000908458 0.00988686 0.00973164 0.00961613 0.00890022 0.0100331 0.00948166 0.00780572 0.00779834 0.00800037 0.00794351 0.0087482 0.0129247 0.015599 0.0161148 0.0135279 0.0143568 0.0169684 0.0212707 0.0178723 0.0121963 0.00219161 0.00455105 0.00934197 0.0105482 0.0105114 0.0103533 0.0101733 0.0100623 0.0100012 0.00996237 0.00995788 0.00994848 0.0224953 0.0290996 0.030987 0.0163763 0.0113482 -0.00603464 -0.0215394 -0.0228339 -0.0243605 -0.0215561 -0.0171402 0.0023779 0.020186 0.0222508 0.0283512 0.027869 0.0258927 0.0265201 0.0216066 0.0151504 0.00983085 0.0110575 0.0122873 0.012346 0.0121119 0.0120598 0.0121735 0.0125746 0.0132465 0.0144072 0.0160518 0.019025 0.029974 0.0364545 0.0323336 0.0238183 0.0316094 -0.00566517 -0.0444385 -0.0535578 -0.0572027 -0.0505685 -0.0359787 0.00557678 0.0380788 0.0269382 0.0279408 0.0332256 0.0324679 0.0316319 0.0255498 0.0191169 0.0146237 0.0159101 0.0156158 0.0147999 0.0141053 0.0139366 0.0141452 0.0148981 0.0161089 0.0180969 0.0207878 0.0252302 0.0345971 0.0418163 0.0381177 0.029335 0.0421659 0.00913327 -0.0553924 -0.086963 -0.0938893 -0.0849468 -0.0490163 0.0154169 0.0490712 0.0340555 0.0341354 0.0381359 0.036075 0.0346975 0.0301852 0.0250513 0.0210896 0.0210019 0.0184181 0.0159429 0.0148914 0.0147962 0.0152775 0.0164182 0.0180584 0.0205675 0.0238555 0.0289469 0.0383557 0.0479266 0.0557971 0.0521305 0.0497031 0.0141456 -0.0750412 -0.131288 -0.146241 -0.127693 -0.0665796 0.0179273 0.0569525 0.0550958 0.0546507 0.0486769 0.0452101 0.0438166 0.0321074 0.0180107 0.0159578 0.0249097 0.0235197 0.0186543 0.0164606 0.0158841 0.0163287 0.0176113 0.0194769 0.022252 0.0259451 0.0313675 0.0369234 0.0454479 0.0566361 0.0646381 0.0695675 0.0387764 -0.062875 -0.168588 -0.210413 -0.162077 -0.0439867 0.0444128 0.0687025 0.0609163 0.0506055 0.0394089 0.039999 0.0441818 0.0424466 0.0310014 0.026275 0.03192 0.0270227 0.0174293 0.0147811 0.0147557 0.0158887 0.0176351 0.0197094 0.0224515 0.0259274 0.0306767 0.0329892 0.0379575 0.0444189 0.0476539 0.0488369 0.0301779 -0.032584 -0.132062 -0.185286 -0.122354 -0.0156803 0.0334934 0.0478049 0.0455275 0.042434 0.0451898 0.074368 0.0737864 0.0190595 -0.0447099 -0.0313488 0.0394723 0.0575682 0.0315306 0.0180365 0.0149981 0.0157636 0.0175532 0.0195738 0.0219992 0.0249269 0.0284993 0.0282081 0.0304627 0.0324255 0.0307437 0.0241439 0.00253795 -0.0357132 -0.0790457 -0.104055 -0.0715627 -0.0266059 0.00671104 0.0238986 0.0270362 0.0258871 0.0364566 0.0895498 0.0830562 0.00490017 -0.0760656 -0.0638954 0.0414975 0.0959164 0.0564565 0.0250223 0.0166616 0.0156368 0.0171906 0.0189548 0.020919 0.0231208 0.0255104 0.0240327 0.0245671 0.0243537 0.0210356 0.0141126 -7.1239e-06 -0.0243609 -0.0498833 -0.0615496 -0.0469266 -0.0190641 0.00175482 0.013852 0.0181472 0.0185957 0.0176855 0.0294518 0.0298935 0.0133999 -0.000788227 -0.00289329 0.0274934 0.0680577 0.047398 0.0255 0.0169757 0.0155064 0.0167856 0.0182626 0.0197094 0.0212267 0.0226356 0.0204031 0.01987 0.0184326 0.014552 0.00809477 -0.00248771 -0.0166261 -0.0293458 -0.0361521 -0.0267308 -0.0128133 0.00132858 0.0120472 0.0185801 0.0249097 0.0212864 0.0120364 0.022066 0.0142804 0.00445999 0.0169571 0.0277434 0.0359018 0.0281662 0.0233904 0.0189327 0.0177422 0.0176131 0.018056 0.0186682 0.0194293 0.0200028 0.0176425 0.0166949 0.0149781 0.0115791 0.0064732 -0.000578903 -0.00966284 -0.0170385 -0.020238 -0.0156123 -0.00708069 0.0019439 0.00900266 0.0124252 0.00979858 -0.0080527 -0.0332252 0.00390145 0.0790803 0.100457 0.0605486 -0.00945471 -0.0208641 -0.0021277 0.0116804 0.0153986 0.0165425 0.0166777 0.0169828 0.0172939 0.0176598 0.0177681 0.0155095 0.0144108 0.0127219 0.00986977 0.00603313 0.00114496 -0.00427176 -0.00838077 -0.0101749 -0.00710635 -0.00204602 0.00412694 0.00964297 0.0135051 0.0129435 -0.00208705 -0.0335659 0.00437531 0.0876587 0.11156 0.0634107 -0.0195206 -0.0371411 -0.0063499 0.0113028 0.0154546 0.0162928 0.0161105 0.0161294 0.0161187 0.0161532 0.0159431 0.01393 0.0129315 0.0115173 0.00935916 0.00662068 0.0034054 -1.67361e-06 -0.00236018 -0.00319471 -0.00136963 0.00190739 0.00618296 0.0104517 0.0147913 0.0183788 0.019983 0.0123667 0.00864952 0.0187782 0.0204748 0.00850362 0.000428482 0.00738659 0.0149761 0.0176568 0.016878 0.0160668 0.0153845 0.0151224 0.014917 0.014774 0.0144415 0.0127373 0.0119277 0.0108471 0.00930337 0.00746358 0.00539551 0.00339371 0.00206695 0.00168274 0.0028724 0.00491958 0.0076151 0.0102923 0.0128053 0.0145492 0.015336 0.0115555 0.0121926 0.0211769 0.0224126 0.0133884 0.00412351 0.00706955 0.0116721 0.0137472 0.0140733 0.0141286 0.0139487 0.0138662 0.0137054 0.0135389 0.0132086 0.0118072 0.0112578 0.0105538 0.00959503 0.00849391 0.0073107 0.00621445 0.00555718 0.00545548 0.00621867 0.00749717 0.00921108 0.0109692 0.0127063 0.0140719 0.0150101 0.0138732 0.0120675 0.012386 0.0113058 0.00901601 0.00846812 0.0109115 0.0126525 0.0132771 0.0132027 0.0130882 0.0128754 0.0127464 0.0125801 0.0124172 0.0121551 0.0110452 0.0107731 0.0104416 0.0100098 0.00953651 0.00905418 0.00864095 0.00845325 0.00851285 0.00897982 0.00965276 0.0105283 0.0113775 0.012152 0.0126536 0.0128441 0.012323 0.0118187 0.0127508 0.0123982 0.0104969 0.00912844 0.00976166 0.0106786 0.011269 0.0115151 0.0116289 0.0116056 0.0115665 0.0114785 0.0113796 0.0112309 0.0103405 0.0103571 0.0103999 0.0104745 0.0105773 0.010723 0.0108831 0.0110955 0.0112833 0.0115238 0.011707 0.0119233 0.0120671 0.012202 0.0122035 0.0120728 0.0116316 0.0109877 0.0107242 0.0101734 0.0095253 0.00934516 0.00970147 0.0101499 0.0103992 0.0105137 0.0105386 0.0105076 0.0104631 0.010413 0.010373 0.0103471 0.00961991 0.00991927 0.0103311 0.0109083 0.0115863 0.0123627 0.0131027 0.0137277 0.0140472 0.0140693 0.0137562 0.0133096 0.0127319 0.0122072 0.0116488 0.0111529 0.0106153 0.0101368 0.00990702 0.00961478 0.00904425 0.00881659 0.00883957 0.0090828 0.00922384 0.00934237 0.00937005 0.00937124 0.00934576 0.00933914 0.00935931 0.00945212 0.00878459 0.00935144 0.0101275 0.0112271 0.0125308 0.0140177 0.0154554 0.016584 0.0170909 0.0168704 0.0160096 0.0148092 0.0134673 0.0122786 0.0111953 0.0103812 0.00967689 0.00916611 0.00879707 0.00855024 0.0082487 0.00819377 0.00817738 0.00829446 0.00832185 0.00835786 0.00832165 0.00828698 0.0082359 0.00823347 0.00828303 0.00846721 0.0077425 0.00854744 0.00967795 0.011344 0.01338 0.0157596 0.0181422 0.0200153 0.020838 0.0202415 0.0185913 0.0164015 0.0141128 0.0121517 0.0104941 0.0093505 0.00848242 0.00799282 0.00765828 0.00755138 0.00733238 0.00732256 0.00727512 0.0073381 0.00732212 0.00731515 0.00723992 0.00716604 0.00707545 0.00704773 0.00708834 0.00732104 0.00637986 0.0073519 0.00878939 0.0110495 0.0139727 0.0175062 0.021354 0.0243106 0.0256516 0.0245359 0.0218308 0.0181529 0.0146472 0.0117316 0.00947306 0.0080309 0.00707334 0.00665708 0.00644097 0.00650405 0.00642822 0.00649961 0.00647544 0.00649745 0.00643892 0.00636132 0.00621741 0.00606122 0.00588397 0.00577317 0.00573583 0.00594057 
        </DataArray>
        <DataArray Name="vz" NumberOfComponents="1" type="Float32" format="ascii">
0 0 0 0 0 0 0 0 0 0 0 0 0 0 0 0 0 0 0 0 0 0 0 0 0 0 0 0 0 0 0 0 0 0 0 0 0 0 0 0 0 0 0 0 0 0 0 0 0 0 0 0 0 0 0 0 0 0 0 0 0 0 0 0 0 0 0 0 0 0 0 0 0 0 0 0 0 0 0 0 0 0 0 0 0 0 0 0 0 0 0 0 0 0 0 0 0 0 0 0 0 0 0 0 0 0 0 0 0 0 0 0 0 0 0 0 0 0 0 0 0 0 0 0 0 0 0 0 0 0 0 0 0 0 0 0 0 0 0 0 0 0 0 0 0 0 0 0 0 0 0 0 0 0 0 0 0 0 0 0 0 0 0 0 0 0 0 0 0 0 0 0 0 0 0 0 0 0 0 0 0 0 0 0 0 0 0 0 0 0 0 0 0 0 0 0 0 0 0 0 0 0 0 0 0 0 0 0 0 0 0 0 0 0 0 0 0 0 0 0 0 0 0 0 0 0 0 0 0 0 0 0 0 0 0 0 0 0 0 0 0 0 0 0 0 0 0 0 0 0 0 0 0 0 0 0 0 0 0 0 0 0 0 0 0 0 0 0 0 0 0 0 0 0 0 0 0 0 0 0 0 0 0 0 0 0 0 0 0 0 0 0 0 0 0 0 0 0 0 0 0 0 0 0 0 0 0 0 0 0 0 0 0 0 0 0 0 0 0 0 0 0 0 0 0 0 0 0 0 0 0 0 0 0 0 0 0 0 0 0 0 0 0 0 0 0 0 0 0 0 0 0 0 0 0 0 0 0 0 0 0 0 0 0 0 0 0 0 0 0 0 0 0 0 0 0 0 0 0 0 0 0 0 0 0 0 0 0 0 0 0 0 0 0 0 0 0 0 0 0 0 0 0 0 0 0 0 0 0 0 0 0 0 0 0 0 0 0 0 0 0 0 0 0 0 0 0 0 0 0 0 0 0 0 0 0 0 0 0 0 0 0 0 0 0 0 0 0 0 0 0 0 0 0 0 0 0 0 0 0 0 0 0 0 0 0 0 0 0 0 0 0 0 0 0 0 0 0 0 0 0 0 0 0 0 0 0 0 0 0 0 0 0 0 0 0 0 0 0 0 0 0 0 0 0 0 0 0 0 0 0 0 0 0 0 0 0 0 0 0 0 0 0 0 0 0 0 0 0 0 0 0 0 0 0 0 0 0 0 0 0 0 0 0 0 0 0 0 0 0 0 0 0 0 0 0 0 0 0 0 0 0 0 0 0 0 0 0 0 0 0 0 0 0 0 0 0 0 0 0 0 0 0 0 0 0 0 0 0 0 0 0 0 0 0 0 0 0 0 0 0 0 0 0 0 0 0 0 0 0 0 0 0 0 0 0 0 0 0 0 0 0 0 0 0 0 0 0 0 0 0 0 0 0 0 0 0 0 0 0 0 0 0 0 0 0 0 0 0 0 0 0 0 0 0 0 0 0 0 0 0 0 0 0 0 0 0 0 0 0 0 0 0 0 0 0 0 0 0 0 0 0 0 0 0 0 0 0 0 0 0 0 0 0 0 0 0 0 0 0 0 0 0 0 0 0 0 0 0 0 0 0 0 0 0 0 0 0 0 0 0 0 0 0 0 0 0 0 0 0 0 0 0 0 0 0 0 0 0 0 0 0 0 0 0 0 0 0 0 0 0 0 0 0 0 0 0 0 0 0 0 0 0 0 0 0 0 0 0 0 0 0 0 0 0 0 0 0 0 0 0 0 0 0 0 0 0 0 0 0 0 0 0 0 0 0 0 0 0 0 0 0 0 0 0 0 0 0 0 0 0 0 0 0 0 0 0 0 0 0 0 0 0 0 0 0 0 0 0 0 0 0 0 0 0 0 0 0 0 0 0 0 0 0 0 0 0 0 0 0 0 0 0 0 0 0 0 0 0 0 0 0 0 0 0 0 0 0 0 0 0 0 0 0 0 0 0 0 0 0 0 0 0 0 0 0 0 0 0 0 0 0 0 0 0 0 0 0 0 0 0 0 0 0 0 0 0 0 0 0 0 0 0 0 0 0 0 0 0 0 0 0 0 0 0 0 0 0 0 0 0 0 0 0 0 0 0 0 0 0 0 0 0 0 0 0 0 0 0 0 0 0 0 0 0 0 0 0 0 0 0 0 0 0 0 0 0 0 0 0 0 0 0 0 0 0 0 0 0 0 0 0 0 0 0 0 0 0 0 0 0 0 0 0 0 0 0 0 0 0 0 0 0 0 0 0 0 0 0 0 0 0 0 0 0 0 0 0 0 0 0 0 0 0 
        </DataArray>
        <DataArray Name="p" NumberOfComponents="1" type="Float32" format="ascii">