<?xml version="1.0"?>
<VTKFile type="StructuredGrid" version="0.1" byte_order="LittleEndian">
  <StructuredGrid WholeExtent="0 32 0 32 0 1">
    <Piece Extent="0 32 0 32 0 1">
      <PointData>
      </PointData>
      <CellData>
        <DataArray Name="vx" NumberOfComponents="1" type="Float32" format="ascii">
0.0201894 0.0199777 0.0197861 0.0195975 0.0194105 0.0192213 0.0190362 0.0188614 0.0187161 0.0186131 0.0185785 0.0186221 0.018748 0.01895 0.0191844 0.0194404 0.0196659 0.0198867 0.0200637 0.0202909 0.0204803 0.0208229 0.0210839 0.0215009 0.0219533 0.0220807 0.0219009 0.0215609 0.0213006 0.0209476 0.0206875 0.0204109 0.0200403 0.019858 0.0196875 0.0195094 0.0193221 0.0191202 0.0189133 0.0187089 0.0185358 0.0184107 0.0183775 0.018451 0.0186471 0.0189596 0.0193176 0.0197011 0.0200316 0.0203285 0.0205574 0.0207883 0.020969 0.0212155 0.0214034 0.0216308 0.0218294 0.0218158 0.0216155 0.0213038 0.0210273 0.0207103 0.0204681 0.0202306 0.0198861 0.0197292 0.0195736 0.0193957 0.0191938 0.0189595 0.0187086 0.018449 0.0182256 0.0180585 0.0180238 0.0181459 0.018458 0.0189506 0.019503 0.0200785 0.0205532 0.0209399 0.0212178 0.0214397 0.0215912 0.0217366 0.0218102 0.0218514 0.0218258 0.021662 0.0213908 0.0210614 0.0207656 0.0204713 0.0202488 0.0200462 0.0197256 0.0195926 0.0194474 0.0192606 0.0190306 0.0187465 0.018431 0.0180929 0.0177937 0.0175523 0.0174973 0.0176591 0.0181318 0.0189077 0.0197651 0.0206351 0.0213038 0.0217872 0.0220923 0.0222656 0.0223486 0.0223682 0.0223023 0.0221613 0.0219346 0.021612 0.021222 0.020836 0.0205057 0.0202221 0.0200212 0.0198533 0.0195596 0.0194562 0.0193236 0.0191242 0.0188567 0.0185045 0.0180983 0.0176365 0.017201 0.0167953 0.0166534 0.016847 0.0175641 0.0187977 0.0201425 0.0214712 0.0224119 0.0229835 0.0232649 0.0233159 0.0232706 0.0231208 0.022881 0.0225392 0.0220945 0.0215863 0.0210404 0.0205786 0.0202092 0.0199392 0.0197699 0.0196458 0.019401 0.0193369 0.0192238 0.0190162 0.0187126 0.0182918 0.0177809 0.0171545 0.01648 0.0157304 0.0153249 0.0153693 0.0163854 0.0184015 0.0206047 0.0227463 0.0241065 0.0247456 0.0248867 0.0246423 0.0243391 0.0239188 0.0234316 0.0228359 0.0221457 0.021439 0.0207262 0.020208 0.0198266 0.0196018 0.0194912 0.0194308 0.0192611 0.0192657 0.0191991 0.0190082 0.0186889 0.0182005 0.0175428 0.0165982 0.0153977 0.0138524 0.012839 0.0126809 0.0142638 0.0176009 0.0212121 0.0246868 0.0267416 0.0273934 0.0271633 0.0263085 0.0255079 0.0246713 0.0238601 0.0229923 0.0220191 0.0210622 0.0201562 0.0196101 0.0192695 0.0191526 0.0191539 0.0192 0.019185 0.0192829 0.019292 0.0191563 0.0188636 0.0183443 0.0175075 0.0161054 0.0140143 0.0112217 0.00933562 0.00858864 0.0108408 0.0159988 0.0215091 0.0271511 0.0304857 0.0313375 0.0305225 0.0285014 0.026776 0.0252118 0.023864 0.0226201 0.0213491 0.0201957 0.0191837 0.0187302 0.0185449 0.0186378 0.0188138 0.0190067 0.0191888 0.0194332 0.0195804 0.0195776 0.01939 0.0188856 0.017817 0.0156983 0.0123327 0.00799698 0.00615457 0.00683533 0.0103929 0.0161393 0.0218092 0.0284861 0.0334371 0.0352704 0.0342774 0.0309206 0.0278881 0.0253722 0.0233538 0.0218121 0.0201938 0.0187328 0.0177039 0.0174805 0.0176025 0.0180216 0.0184488 0.0188458 0.0193571 0.0197527 0.020072 0.0202711 0.0202997 0.0199824 0.0189367 0.0167293 0.0133051 0.0107789 0.0128644 0.0180949 0.0222934 0.024944 0.026789 0.0286091 0.0319899 0.0362277 0.0369429 0.0325089 0.0281986 0.0244841 0.0213316 0.0195792 0.0175062 0.0160208 0.0158681 0.0161824 0.0167785 0.0176044 0.0182826 0.0188659 0.019656 0.0202366 0.0207955 0.0213256 0.0217691 0.0220125 0.0216886 0.0207994 0.0197589 0.0221832 0.0265535 0.0305188 0.0314476 0.0283476 0.0249718 0.0219556 0.0222784 0.027639 0.0327309 0.0304982 0.0260954 0.0220655 0.0185726 0.0179276 0.0155086 0.0124764 0.0131686 0.0149075 0.0162243 0.0174337 0.0182944 0.0190259 0.0201306 0.020824 0.0215965 0.0224734 0.023475 0.024608 0.0258882 0.0277332 0.0306314 0.0352367 0.0379341 0.0373236 0.0336555 0.0277141 0.0219803 0.016017 0.0127135 0.0116878 0.0171862 0.0214522 0.0200214 0.017388 0.0156306 0.0148411 0.0167735 0.0152432 0.012487 0.0154913 0.0166758 0.0179591 0.0187579 0.0194729 0.020631 0.0213995 0.0223626 0.0236097 0.0251959 0.0273946 0.0304286 0.0349179 0.0400728 0.0430541 0.0416793 0.037619 0.0323087 0.0262755 0.0204954 0.0143212 0.00888941 0.00401152 0.00305542 0.00782771 0.0124476 0.0134072 0.0186458 0.0214931 0.0214585 0.0242713 0.0227169 0.0205501 0.019438 0.0194192 0.0196004 0.0200553 0.0210381 0.021767 0.0227678 0.0241474 0.0260152 0.0287315 0.0327098 0.0384294 0.0434974 0.044521 0.0411009 0.0357979 0.0303082 0.0247637 0.019553 0.0141534 0.00878303 0.00376697 -0.000441279 0.00224903 0.00971938 0.0161382 0.0249551 0.0259732 0.0256641 0.0273575 0.0238122 0.0219902 0.0208277 0.0204195 0.0203373 0.0205817 0.0212022 0.0218732 0.0228351 0.0242298 0.0261181 0.0290283 0.0331399 0.0395953 0.0445293 0.0444162 0.040157 0.0341743 0.0286854 0.0233374 0.0183341 0.0131767 0.00762856 0.00206998 -0.00356362 -0.00232042 0.00457305 0.0118999 0.0153798 0.0159068 0.0220155 0.025035 0.022825 0.0221621 0.0214257 0.0209415 0.0207124 0.0208399 0.0211288 0.0216325 0.0223688 0.0234542 0.024871 0.0269919 0.029971 0.0344726 0.0389631 0.0413471 0.0385964 0.0326999 0.0274198 0.0220632 0.0171988 0.012175 0.0073107 0.00272443 0.0011096 0.00369186 0.00667551 0.0110406 0.0107886 0.0125701 0.0140335 0.0152507 0.0198628 0.0206913 0.0211545 0.0209073 0.0208152 0.0208754 0.0209185 0.0212299 0.0217129 0.0224055 0.023281 0.0244218 0.0258823 0.0281044 0.0314718 0.0365067 0.0364551 0.0315083 0.0264857 0.0207545 0.015521 0.0100704 0.00520233 0.00135914 0.00260426 0.0070701 0.00928561 0.0126081 0.0129852 0.0147263 0.0145163 0.0153426 0.0201368 0.0207717 0.0211931 0.0209297 0.0208145 0.0207863 0.0205797 0.020664 0.0208046 0.0210056 0.021129 0.0211484 0.020657 0.0201563 0.0205735 0.0267072 0.029669 0.0272048 0.0244769 0.0189819 0.0138121 0.00856032 0.00471858 0.00406172 0.00725007 0.0119724 0.0144624 0.0162378 0.0164991 0.017687 0.0180976 0.0185067 0.0206715 0.0208036 0.0210339 0.0207994 0.0206785 0.0205821 0.0202893 0.0201988 0.0200982 0.0199305 0.0196278 0.0189399 0.0175796 0.0153065 0.0134829 0.0159533 0.0183491 0.0197358 0.020805 0.0177887 0.0150659 0.0123111 0.0114623 0.0162627 0.0208315 0.0215615 0.0210354 0.0203425 0.019739 0.0200989 0.0198843 0.0197275 0.0208879 0.0207966 0.0208914 0.0206705 0.0205284 0.020389 0.0200431 0.0198017 0.0194716 0.0189838 0.0183007 0.0171208 0.0153662 0.0120338 0.00916503 0.00526931 0.00801088 0.0145904 0.0173328 0.0197409 0.0219775 0.0235479 0.0267686 0.0311824 0.0306967 0.0275094 0.0245041 0.0226917 0.0215788 0.0214054 0.0206376 0.0198992 0.0205274 0.0204947 0.0206056 0.0204896 0.0203687 0.020223 0.0199247 0.0196174 0.0191831 0.0185632 0.0177684 0.0165573 0.0149547 0.0120811 0.00903415 0.00435876 0.00489274 0.00948108 0.0128898 0.0182662 0.0228066 0.0287156 0.0337342 0.0344785 0.0318041 0.0282563 0.0253026 0.0235176 0.02232 0.0220235 0.0199994 0.0183989 0.0196683 0.0200227 0.0202525 0.0203106 0.0202345 0.020131 0.0199895 0.0196149 0.0190968 0.0184016 0.0175615 0.0164337 0.0151581 0.0131845 0.0112996 0.00866127 0.00832642 0.0106602 0.014162 0.0195897 0.0241501 0.0291249 0.0320851 0.0316787 0.0295436 0.0268652 0.0246983 0.0233771 0.0224371 0.0218775 0.0192064 0.0166276 0.0177246 0.0191098 0.0200214 0.0203984 0.0203551 0.020253 0.0201012 0.0197158 0.0191912 0.0185177 0.0177296 0.016755 0.0157362 0.0144033 0.013248 0.0118641 0.0118137 0.0133322 0.01585 0.01975 0.0232372 0.0263785 0.0280111 0.0278148 0.0266215 0.0250429 0.023917 0.0226054 0.0224597 0.0212437 0.0209982 0.0199925 0.0197428 0.0211069 0.0204935 0.0207529 0.0205252 0.0204006 0.0204867 0.0199921 0.0194259 0.0187709 0.0180455 0.0172177 0.0164098 0.0155064 0.0148396 0.014216 0.0143362 0.0153309 0.0169794 0.0194217 0.0216694 0.023664 0.0247604 0.0248179 0.0242421 0.0231633 0.0223064 0.0205299 0.0204548 0.0204934 0.0227905 0.0249106 0.027997 0.0284619 0.0240631 0.0227977 0.0215816 0.0210197 0.0205466 0.0201079 0.0196042 0.0190322 0.0184111 0.0177353 0.0170914 0.0164449 0.0160008 0.0156939 0.015865 0.0165559 0.0176343 0.0191349 0.0205603 0.0218057 0.0225508 0.0227113 0.0224672 0.0220758 0.0213586 0.0227891 0.0232547 0.0203311 0.0210867 0.0230702 0.0265403 0.0279972 0.024484 0.022477 0.0214941 0.0209857 0.0206507 0.0202532 0.0197928 0.0192891 0.0187586 0.0182097 0.0177001 0.017227 0.0169163 0.0167494 0.0168911 0.0173523 0.0180604 0.0189957 0.019901 0.0206835 0.0211817 0.021321 0.0212132 0.0209862 0.0203882 0.0212257 0.0231785 0.0210561 0.0192957 0.0189048 0.0204799 0.0228676 0.0221035 0.0217661 0.0212952 0.0210138 0.0204293 0.0202023 0.0198582 0.0194543 0.0190247 0.0185899 0.0181894 0.017834 0.0175969 0.0174811 0.0175691 0.0178588 0.0183078 0.0188771 0.0194365 0.0198939 0.0202007 0.0202232 0.0202335 0.0197805 0.019815 0.017421 0.0184642 0.0186486 0.0136233 0.0114404 0.0079448 0.0103435 0.0163254 0.0187834 0.0200373 0.0204344 0.0205039 0.0202549 0.0199411 0.0195907 0.0192311 0.0188794 0.01856 0.0182855 0.0180982 0.0180048 0.0180473 0.01822 0.0184981 0.0188434 0.0191833 0.0194474 0.0196098 0.0195878 0.0195186 0.0192077 0.0189688 0.0171962 0.0144311 0.0150476 0.0148981 0.0172997 0.017391 0.0157113 0.0183428 0.0196009 0.0204418 0.02057 0.020524 0.0202589 0.0199703 0.0196659 0.0193641 0.0190762 0.0188164 0.0185959 0.0184387 0.0183523 0.0183588 0.0184528 0.0186193 0.0188282 0.0190375 0.0192019 0.0193089 0.0193325 0.0193502 0.0193993 0.0195049 0.0197263 0.017752 0.0191666 0.0231461 0.025298 0.022939 0.0197158 0.0202291 0.0204179 0.0207633 0.0206725 0.0204959 0.0202272 0.0199631 0.0196978 0.0194413 0.0191999 0.0189819 0.0187962 0.0186581 0.0185748 0.01856 0.0186105 0.0187166 0.0188571 0.0190011 0.0191209 0.0191957 0.0192312 0.0192367 0.0193336 0.0194384 0.0200139 0.0196514 0.0211231 0.0241334 0.0248506 0.0226833 0.0209368 0.021097 0.0209097 0.0209368 0.020705 0.0204411 0.0201743 0.01993 0.0196946 0.019471 0.0192606 0.0190683 0.018901 0.0187708 0.0186857 0.0186576 0.018687 0.0187686 0.018889 0.0190211 0.0191511 0.0192518 0.0193491 0.0194195 0.0196018 0.0197533 0.0203088 0.0204057 0.021325 0.0227659 0.0231755 0.0224818 0.0216857 0.0215688 0.0211939 0.0210055 0.0206934 0.0203203 0.0200815 0.0198663 0.019659 0.0194599 0.0192677 0.0190871 0.0189244 0.018793 0.0187027 0.0186694 0.0186978 0.0187868 0.0189279 0.0190896 0.0192624 0.0194082 0.0195559 0.0196685 0.0198662 0.0200341 0.0204738 0.0207678 0.0214503 0.0223265 0.022592 0.0222408 0.0217484 0.0215051 0.021116 0.0208651 0.0205618 
        </DataArray>
        <DataArray Name="vy" NumberOfComponents="1" type="Float32" format="ascii">
0.0120181 0.0120027 0.0120073 0.0120304 0.0120682 0.0121173 0.0121653 0.0122063 0.0122205 0.012209 0.012153 0.012079 0.0119798 0.0119044 0.0118573 0.011862 0.011929 0.0120582 0.0122648 0.0125554 0.0128871 0.0133058 0.0135476 0.0139105 0.0136847 0.0133294 0.0128006 0.0126249 0.012355 0.0122404 0.01212 0.0120589 0.0122257 0.0121925 0.0121901 0.0122149 0.0122576 0.0123113 0.0123546 0.0123789 0.0123527 0.0122827 0.0121382 0.0119745 0.0117783 0.0116424 0.0115633 0.0115746 0.0116683 0.0118272 0.012046 0.0123314 0.0126302 0.013003 0.0132418 0.0135466 0.0134974 0.0133841 0.0130897 0.0129312 0.0126946 0.012542 0.0123933 0.0122938 0.0123951 0.012354 0.0123558 0.0123948 0.0124555 0.012526 0.0125741 0.0125861 0.0125165 0.012374 0.0121107 0.0118195 0.0114696 0.0112404 0.0111153 0.0111475 0.0113023 0.0115269 0.0118049 0.0121316 0.0124571 0.0128477 0.0131341 0.0134519 0.0135201 0.0135213 0.0133496 0.0132017 0.012979 0.0127922 0.0126153 0.0124834 0.0125453 0.0125049 0.0125251 0.0125965 0.0126942 0.0127991 0.0128631 0.0128649 0.0127354 0.0124881 0.0120364 0.0115448 0.0109605 0.0106008 0.0104308 0.010524 0.0108085 0.0111609 0.0115502 0.0119587 0.0123394 0.0127866 0.0131389 0.013527 0.0137013 0.0138052 0.0136997 0.0135421 0.0132925 0.0130483 0.0128237 0.0126523 0.0126556 0.0126293 0.0126857 0.0128099 0.0129664 0.0131256 0.0132246 0.0132297 0.0130542 0.0126904 0.0119999 0.0112178 0.0102135 0.00962522 0.00938043 0.00960428 0.0101474 0.0107333 0.0113291 0.0118785 0.0123521 0.0128997 0.0133346 0.0138185 0.0140647 0.0142308 0.0141221 0.0139146 0.0135941 0.0132713 0.0129858 0.0127745 0.0127399 0.0127435 0.0128601 0.0130667 0.0133149 0.0135606 0.0137253 0.0137646 0.0135527 0.0130395 0.0119361 0.0106473 0.00897018 0.0080397 0.00775339 0.00826498 0.009306 0.01031 0.0112163 0.011955 0.0125179 0.0131844 0.0137084 0.0143222 0.0146578 0.0148746 0.0147046 0.0143881 0.0139347 0.0134941 0.0131233 0.0128652 0.0127452 0.0128014 0.0130025 0.0133177 0.0136873 0.014058 0.0143608 0.0145481 0.0144805 0.0139076 0.012358 0.0102674 0.00714999 0.00546162 0.00499797 0.00606022 0.00812514 0.00993068 0.0114425 0.0124466 0.0130715 0.0138379 0.0144054 0.0150995 0.0154544 0.0156458 0.0153193 0.0148205 0.0141772 0.0136027 0.0131475 0.0128578 0.0126824 0.0128114 0.0131237 0.0135813 0.0141254 0.0147079 0.0153143 0.0159034 0.0162287 0.0155866 0.0129383 0.0092732 0.00392511 0.00115489 0.000690665 0.00280504 0.00666142 0.00991135 0.0123021 0.0136074 0.0141138 0.0148385 0.0153928 0.0161468 0.0166457 0.016754 0.0161475 0.0153158 0.0143828 0.0136333 0.0130823 0.0127684 0.0124594 0.0126861 0.0131229 0.0137392 0.014497 0.0154144 0.0166088 0.0180829 0.0193948 0.0187624 0.0150151 0.00911337 -0.000435466 -0.00498223 -0.00629535 -0.00319153 0.00383939 0.0097843 0.0143514 0.0162304 0.0163689 0.016766 0.0170177 0.0174247 0.0180628 0.0176848 0.0167539 0.0154917 0.0142265 0.013344 0.0127586 0.0124792 0.0121054 0.01243 0.0129908 0.0137779 0.0148283 0.0162771 0.0184877 0.0213506 0.0237761 0.0216271 0.0134249 0.00523534 -0.00576471 -0.0102378 -0.0115726 -0.00846404 0.000117871 0.00916632 0.0166494 0.0199491 0.0196278 0.0193569 0.0192209 0.0190686 0.0199848 0.0191577 0.0174093 0.0154403 0.0137827 0.0128172 0.0122516 0.012045 0.0115607 0.0119599 0.0125943 0.0134964 0.0147822 0.0167639 0.0198861 0.02375 0.0254318 0.0196154 0.00808963 -0.00010456 -0.00725283 -0.00946211 -0.010142 -0.00872482 -0.00404203 0.00442009 0.0184852 0.0249857 0.0243865 0.0234483 0.0220376 0.0199875 0.0233904 0.0183267 0.0167224 0.014715 0.0128005 0.0119133 0.0114854 0.0114081 0.0108997 0.0113035 0.0119219 0.012816 0.0141801 0.0163596 0.0197677 0.0232134 0.0225092 0.0143464 0.00506216 -7.88096e-05 -0.00314828 -0.00399066 -0.00490425 -0.00554364 -0.00511952 -0.00138401 0.0135564 0.0263467 0.0281369 0.0268847 0.0250407 0.0210035 0.0256894 0.0213299 0.0150556 0.012143 0.0110458 0.010718 0.0106062 0.0106904 0.0102035 0.0104804 0.0109269 0.0115844 0.0126272 0.0142734 0.0167669 0.018802 0.0180315 0.0123024 0.00660981 0.00389678 0.00254781 0.00210516 0.00147634 0.000499206 9.36533e-06 0.000302715 0.00919199 0.0223821 0.0279054 0.0275369 0.0229576 0.0196288 0.0220979 0.0232561 0.0157662 0.0118898 0.0105072 0.0100999 0.0100156 0.0100661 0.00955141 0.00958527 0.00974091 0.0100069 0.0104682 0.0111514 0.0123785 0.0135227 0.0144927 0.0126212 0.0104006 0.00902971 0.00824653 0.00769672 0.00703478 0.00601481 0.00500965 0.00418925 0.0090742 0.0171424 0.0226693 0.022034 0.0158299 0.0212897 0.0214674 0.0221841 0.0180417 0.0143884 0.0115013 0.0103136 0.00984612 0.00962987 0.00901118 0.00872953 0.00851812 0.00828583 0.0079992 0.00744971 0.00707674 0.00766341 0.0120904 0.014761 0.0155727 0.0146411 0.0137478 0.012886 0.0121749 0.011419 0.0105514 0.0100539 0.0112153 0.0122007 0.0134728 0.0133656 0.0113799 0.0201537 0.017406 0.0249586 0.0212578 0.0158305 0.0124861 0.0107742 0.00993242 0.00938101 0.00853327 0.00797746 0.00742548 0.00677155 0.00578502 0.00422481 0.0021524 0.00229178 0.00994813 0.0164197 0.0205768 0.0201785 0.0190656 0.0178914 0.0171117 0.0165978 0.015904 0.0151284 0.0129083 0.00913045 0.00850086 0.0106924 0.0115587 0.0157911 0.0131906 0.0226273 0.0203233 0.0153419 0.0126284 0.0109278 0.00992635 0.0091436 0.00823652 0.00745936 0.00665706 0.00571471 0.00434979 0.00218159 -0.000796328 -0.0017776 0.00555219 0.0150262 0.0249721 0.0257287 0.0246458 0.0231548 0.022168 0.0214595 0.0200521 0.0165185 0.0101698 0.00696974 0.00615956 0.00891866 0.0110592 0.0152911 0.0147605 0.0181966 0.0166103 0.0143168 0.0124943 0.0110833 0.00999211 0.00904938 0.00811025 0.00720837 0.00628605 0.00525583 0.00385417 0.00173818 -0.00133828 -0.00310652 0.00159886 0.0109459 0.0257025 0.0297128 0.0299107 0.0286788 0.0277425 0.0269321 0.0244946 0.0181034 0.0068424 0.00255207 0.00279882 0.00668487 0.00993867 0.0135975 0.0138943 0.0163005 0.0152615 0.0140017 0.0125544 0.0112566 0.0100953 0.00905115 0.00813762 0.00720951 0.00628948 0.00534168 0.00415755 0.00258459 0.000112227 -0.00162852 -0.000949922 0.00588893 0.0253479 0.0303283 0.0331428 0.0337916 0.0326405 0.0305453 0.0246246 0.0135704 0.00222387 -0.000290577 0.00221519 0.0066292 0.00999804 0.01317 0.0141716 0.0152877 0.0146038 0.013808 0.0125843 0.0113937 0.0102083 0.00912833 0.00831785 0.00742298 0.00658092 0.00576842 0.00489467 0.00385464 0.00235676 0.000985613 0.000813166 0.00568434 0.0218859 0.0265666 0.0323016 0.0341832 0.0332255 0.0307769 0.0205665 0.00880831 0.00216725 0.00200105 0.00431754 0.00777459 0.010484 0.0131484 0.0146965 0.0149479 0.01438 0.0138879 0.0127577 0.0116228 0.0104029 0.0093111 0.00853275 0.00776143 0.00707956 0.00648552 0.00596489 0.00550787 0.00506637 0.00474551 0.00551948 0.00790115 0.0163236 0.0216656 0.027844 0.0294292 0.0284558 0.0256948 0.0167119 0.00954453 0.00576615 0.00563784 0.00710636 0.00937969 0.0114354 0.0139262 0.0158647 0.0152658 0.0141978 0.0136301 0.012589 0.0115853 0.0104376 0.0094326 0.00885078 0.00819347 0.00765339 0.00722204 0.00691781 0.00674599 0.00680088 0.00705041 0.00820936 0.0101089 0.0154419 0.0188558 0.0229837 0.0241798 0.0230302 0.020093 0.014986 0.01082 0.00859324 0.00848547 0.00919849 0.0108075 0.0120529 0.015232 0.0185532 0.0148428 0.0126784 0.0134065 0.0125601 0.0117294 0.0106175 0.00967003 0.0091221 0.00863327 0.00826311 0.00800563 0.00788595 0.00791467 0.00821503 0.00870413 0.00986281 0.0112235 0.0142362 0.0163759 0.0188575 0.0196042 0.0189591 0.0172773 0.0142702 0.0119469 0.0105238 0.010344 0.0104583 0.0115069 0.0129767 0.0172544 0.0214057 0.0168606 0.0120729 0.0112792 0.0111047 0.0111383 0.0104614 0.00975624 0.00956904 0.00914172 0.00886803 0.00871332 0.00868704 0.00879016 0.00912714 0.00963404 0.0106131 0.011698 0.0136225 0.0149522 0.016374 0.016799 0.0163981 0.0153211 0.0136286 0.0122759 0.0114726 0.0113697 0.0117183 0.0129693 0.0127775 0.0166907 0.0192922 0.0161092 0.010745 0.0131655 0.0128712 0.0119379 0.0110503 0.0101977 0.0100776 0.00966837 0.00945673 0.00937521 0.00941068 0.00955391 0.00987417 0.0103181 0.0110671 0.0118521 0.0130477 0.0139005 0.0147412 0.0149805 0.0147421 0.0141016 0.0131258 0.0123957 0.0120411 0.0121405 0.0124223 0.0132135 0.012995 0.0161363 0.016629 0.0130139 0.00802868 0.015544 0.0161899 0.0137041 0.0119858 0.0107976 0.010498 0.0101212 0.00996097 0.00992566 0.00998814 0.0101347 0.0104058 0.0107668 0.011317 0.0118931 0.0126673 0.0132303 0.0137351 0.0138742 0.0137205 0.0133192 0.0127622 0.0124001 0.0122754 0.0125965 0.0118382 0.0107968 0.0154002 0.018008 0.0157198 0.0105956 0.00486762 0.0160795 0.0185943 0.0151193 0.0126936 0.0112555 0.0107709 0.0104963 0.0104002 0.0104009 0.0104761 0.0106137 0.0108357 0.0111181 0.0115121 0.0119171 0.0124134 0.0127801 0.0130862 0.0131624 0.0130617 0.0128063 0.0124924 0.012312 0.0123652 0.0127138 0.0122898 0.00982947 0.013626 0.0205551 0.019177 0.0132107 0.00479372 0.0127167 0.0165586 0.0142256 0.0124902 0.0113367 0.0108124 0.01073 0.0107283 0.0107717 0.0108566 0.0109806 0.0111577 0.0113747 0.0116549 0.0119413 0.0122645 0.0125074 0.0126979 0.0127472 0.0126956 0.0125537 0.0124299 0.012401 0.0127025 0.0131539 0.0139909 0.0124841 0.0137902 0.0228475 0.0217551 0.0144074 0.00583955 0.00817313 0.0118098 0.0118401 0.0114174 0.0110053 0.0110437 0.0110272 0.0110533 0.0111045 0.0111816 0.0112849 0.0114222 0.0115853 0.0117824 0.0119802 0.0121879 0.0123437 0.0124584 0.0124857 0.0124573 0.012379 0.0123436 0.0123872 0.0127112 0.0132108 0.0142264 0.0144433 0.0155926 0.0202956 0.0180136 0.0119051 0.00748276 0.0105278 0.0116486 0.0116058 0.0113206 0.0111276 0.0112644 0.0112888 0.0113292 0.0113807 0.0114476 0.0115316 0.0116366 0.0117575 0.0118938 0.0120274 0.0121566 0.0122518 0.0123161 0.0123305 0.0123186 0.0122856 0.0123027 0.0123809 0.0126606 0.0130531 0.0137524 0.0142543 0.0146906 0.0169592 0.0156964 0.0134689 0.0110105 0.0115457 0.0114831 0.0114485 0.0113131 0.0112704 0.0115266 0.0115502 0.0115831 0.0116245 0.0116779 0.0117445 0.0118235 0.011911 0.0120005 0.0120824 0.0121494 0.0121921 0.0122103 0.0122045 0.012192 0.0121823 0.0122251 0.0123299 0.0125842 0.0129545 0.0135083 0.0141113 0.0145162 0.015573 0.0147341 0.0132939 0.0118269 0.0119224 0.0116542 0.0116258 0.011531 0.0115225 0.0117908 0.0117931 0.0118096 0.011839 0.0118814 0.0119355 0.0119955 0.0120569 0.0121072 0.012143 0.012152 0.0121423 0.012111 0.0120784 0.0120556 0.0120569 0.012111 0.0122234 0.0124358 0.0127419 0.013127 0.0136052 0.0138559 0.0144522 0.0140146 0.0134181 0.012538 0.01239 0.0120611 0.0119654 0.0118488 0.0118112 
        </DataArray>
        <DataArray Name="vz" NumberOfComponents="1" type="Float32" format="ascii">
0 0 0 0 0 0 0 0 0 0 0 0 0 0 0 0 0 0 0 0 0 0 0 0 0 0 0 0 0 0 0 0 0 0 0 0 0 0 0 0 0 0 0 0 0 0 0 0 0 0 0 0 0 0 0 0 0 0 0 0 0 0 0 0 0 0 0 0 0 0 0 0 0 0 0 0 0 0 0 0 0 0 0 0 0 0 0 0 0 0 0 0 0 0 0 0 0 0 0 0 0 0 0 0 0 0 0 0 0 0 0 0 0 0 0 0 0 0 0 0 0 0 0 0 0 0 0 0 0 0 0 0 0 0 0 0 0 0 0 0 0 0 0 0 0 0 0 0 0 0 0 0 0 0 0 0 0 0 0 0 0 0 0 0 0 0 0 0 0 0 0 0 0 0 0 0 0 0 0 0 0 0 0 0 0 0 0 0 0 0 0 0 0 0 0 0 0 0 0 0 0 0 0 0 0 0 0 0 0 0 0 0 0 0 0 0 0 0 0 0 0 0 0 0 0 0 0 0 0 0 0 0 0 0 0 0 0 0 0 0 0 0 0 0 0 0 0 0 0 0 0 0 0 0 0 0 0 0 0 0 0 0 0 0 0 0 0 0 0 0 0 0 0 0 0 0 0 0 0 0 0 0 0 0 0 0 0 0 0 0 0 0 0 0 0 0 0 0 0 0 0 0 0 0 0 0 0 0 0 0 0 0 0 0 0 0 0 0 0 0 0 0 0 0 0 0 0 0 0 0 0 0 0 0 0 0 0 0 0 0 0 0 0 0 0 0 0 0 0 0 0 0 0 0 0 0 0 0 0 0 0 0 0 0 0 0 0 0 0 0 0 0 0 0 0 0 0 0 0 0 0 0 0 0 0 0 0 0 0 0 0 0 0 0 0 0 0 0 0 0 0 0 0 0 0 0 0 0 0 0 0 0 0 0 0 0 0 0 0 0 0 0 0 0 0 0 0 0 0 0 0 0 0 0 0 0 0 0 0 0 0 0 0 0 0 0 0 0 0 0 0 0 0 0 0 0 0 0 0 0 0 0 0 0 0 0 0 0 0 0 0 0 0 0 0 0 0 0 0 0 0 0 0 0 0 0 0 0 0 0 0 0 0 0 0 0 0 0 0 0 0 0 0 0 0 0 0 0 0 0 0 0 0 0 0 0 0 0 0 0 0 0 0 0 0 0 0 0 0 0 0 0 0 0 0 0 0 0 0 0 0 0 0 0 0 0 0 0 0 0 0 0 0 0 0 0 0 0 0 0 0 0 0 0 0 0 0 0 0 0 0 0 0 0 0 0 0 0 0 0 0 0 0 0 0 0 0 0 0 0 0 0 0 0 0 0 0 0 0 0 0 0 0 0 0 0 0 0 0 0 0 0 0 0 0 0 0 0 0 0 0 0 0 0 0 0 0 0 0 0 0 0 0 0 0 0 0 0 0 0 0 0 0 0 0 0 0 0 0 0 0 0 0 0 0 0 0 0 0 0 0 0 0 0 0 0 0 0 0 0 0 0 0 0 0 0 0 0 0 0 0 0 0 0 0 0 0 0 0 0 0 0 0 0 0 0 0 0 0 0 0 0 0 0 0 0 0 0 0 0 0 0 0 0 0 0 0 0 0 0 0 0 0 0 0 0 0 0 0 0 0 0 0 0 0 0 0 0 0 0 0 0 0 0 0 0 0 0 0 0 0 0 0 0 0 0 0 0 0 0 0 0 0 0 0 0 0 0 0 0 0 0 0 0 0 0 0 0 0 0 0 0 0 0 0 0 0 0 0 0 0 0 0 0 0 0 0 0 0 0 0 0 0 0 0 0 0 0 0 0 0 0 0 0 0 0 0 0 0 0 0 0 0 0 0 0 0 0 0 0 0 0 0 0 0 0 0 0 0 0 0 0 0 0 0 0 0 0 0 0 0 0 0 0 0 0 0 0 0 0 0 0 0 0 0 0 0 0 0 0 0 0 0 0 0 0 0 0 0 0 0 0 0 0 0 0 0 0 0 0 0 0 0 0 0 0 0 0 0 0 0 0 0 0 0 0 0 0 0 0 0 0 0 0 0 0 0 0 0 0 0 0 0 0 0 0 0 0 0 0 0 0 0 0 0 0 0 0 0 0 0 0 0 0 0 0 0 0 0 0 0 0 0 0 0 0 0 0 0 0 0 0 0 0 0 0 0 0 0 0 0 0 0 0 0 0 0 0 0 0 0 0 0 0 0 0 0 0 0 0 0 0 0 0 0 0 0 0 0 0 0 0 0 0 0 0 0 0 0 0 0 0 0 0 0 0 0 0 0 0 0 0 0 0 
        </DataArray>
        <DataArray Name="p" NumberOfComponents="1" type="Float32" format="ascii">