<?xml version="1.0"?>
<VTKFile type="StructuredGrid" version="0.1" byte_order="LittleEndian">
  <StructuredGrid WholeExtent="0 32 0 32 0 1">
    <Piece Extent="0 32 0 32 0 1">
      <PointData>
      </PointData>
      <CellData>
        <DataArray Name="vx" NumberOfComponents="1" type="Float32" format="ascii">
0.0203683 0.0201297 0.0199261 0.0197254 0.0195345 0.0193383 0.0191468 0.0189561 0.0187893 0.0186493 0.0185684 0.0185529 0.0186151 0.018761 0.0189491 0.0191826 0.0194045 0.0196345 0.0198329 0.0200805 0.0202968 0.0206659 0.0209348 0.0214211 0.0218346 0.0220064 0.0220897 0.0218485 0.0215795 0.0212294 0.0209278 0.0206171 0.0202233 0.0200225 0.0198445 0.0196603 0.019474 0.0192712 0.0190643 0.018849 0.0186583 0.0184936 0.0184074 0.0184054 0.018517 0.0187523 0.0190459 0.0194019 0.0197317 0.0200457 0.0203033 0.0205632 0.0207782 0.0210626 0.0212719 0.0215604 0.0217639 0.0218026 0.0217514 0.0215103 0.021258 0.0209512 0.020691 0.0204318 0.0200683 0.019902 0.0197445 0.0195681 0.0193746 0.0191485 0.0189078 0.0186462 0.0184138 0.0182064 0.0181125 0.0181337 0.0183284 0.0187126 0.0191737 0.0197172 0.0201994 0.0206183 0.0209353 0.0211952 0.0213839 0.0215725 0.0216726 0.0217739 0.0217801 0.0216702 0.0215032 0.0212272 0.0209624 0.0206814 0.0204524 0.0202391 0.0199048 0.019771 0.019631 0.0194561 0.0192463 0.0189846 0.018696 0.0183685 0.0180723 0.0177863 0.0176594 0.0176794 0.0179814 0.0185947 0.0193145 0.0201576 0.0208651 0.0214168 0.0217806 0.0220059 0.0221303 0.0222029 0.0221655 0.0220904 0.0219012 0.0216184 0.0213196 0.0209729 0.0206782 0.0204104 0.0202084 0.0200384 0.0197356 0.0196371 0.0195143 0.0193365 0.0191009 0.0187879 0.0184294 0.0179991 0.0175913 0.017152 0.016942 0.0169308 0.0173882 0.018375 0.01951 0.0208185 0.0218489 0.0225512 0.0229209 0.0230477 0.0230443 0.0229615 0.0227371 0.0224689 0.0220584 0.0215687 0.0211323 0.0206955 0.0203714 0.0201173 0.0199483 0.0198268 0.0195715 0.0195183 0.0194208 0.0192475 0.0189927 0.0186336 0.0181986 0.0176284 0.0170181 0.0162534 0.0157883 0.0155551 0.0161867 0.0177769 0.0195944 0.0217497 0.0233596 0.0242763 0.0245564 0.0244114 0.0241297 0.0237901 0.0232902 0.0228089 0.0221275 0.0213855 0.0208376 0.0203121 0.0199888 0.0197731 0.0196616 0.0196065 0.0194233 0.0194367 0.0193826 0.0192305 0.0189672 0.0185577 0.018003 0.0171696 0.0161345 0.0147254 0.0138198 0.0132732 0.0141919 0.0167658 0.019663 0.0231097 0.0256158 0.026807 0.026831 0.0261572 0.0253647 0.0246287 0.0237302 0.0229968 0.0219911 0.0209329 0.0202988 0.019711 0.019456 0.019336 0.0193302 0.0193765 0.0193249 0.0194327 0.0194536 0.0193647 0.0191392 0.0187241 0.0180411 0.0168494 0.0151384 0.0127893 0.0112815 0.0101854 0.0115779 0.0152123 0.0190009 0.0243482 0.0285986 0.0305192 0.0301714 0.0284744 0.0267391 0.0253154 0.0238003 0.022888 0.0213906 0.0199 0.019429 0.0188377 0.0187619 0.0188186 0.0189771 0.0191668 0.0193174 0.0195489 0.0196823 0.0197063 0.0195643 0.0191687 0.018302 0.0166183 0.0140796 0.0110376 0.0104037 0.0104367 0.0123868 0.0162421 0.0198527 0.0253571 0.0306419 0.0337682 0.0335303 0.0308755 0.0279923 0.0256913 0.0233239 0.022161 0.0201479 0.0181502 0.0180043 0.0176244 0.0179119 0.018269 0.0186552 0.0190243 0.0194214 0.019799 0.0200895 0.0203048 0.020364 0.0201785 0.0194275 0.0178966 0.0157362 0.0147686 0.0171009 0.0201561 0.0224591 0.0251784 0.0279138 0.0294079 0.0314891 0.0349551 0.0355954 0.0321537 0.0282627 0.0249706 0.021662 0.0212236 0.0177785 0.0147439 0.0164216 0.0164447 0.017149 0.0178447 0.0184396 0.01899 0.0197294 0.0202336 0.0207017 0.02118 0.0215651 0.0218493 0.0216726 0.0212788 0.0207409 0.0231028 0.0251931 0.0277866 0.030042 0.028818 0.0274843 0.0250912 0.0243181 0.0271674 0.0304095 0.0293358 0.026209 0.02285 0.0191446 0.0190895 0.0156432 0.0118349 0.0140818 0.0153803 0.0168068 0.0178767 0.0185871 0.019223 0.0200726 0.0206923 0.0213505 0.0221343 0.0229791 0.0240112 0.0250851 0.0266062 0.0287621 0.0310605 0.032356 0.0337205 0.0325992 0.0284796 0.0241539 0.0191389 0.0156601 0.0143633 0.016722 0.0194324 0.0200086 0.0176939 0.0168845 0.0157368 0.0179175 0.0188308 0.0166104 0.0176469 0.0174752 0.0184146 0.0188941 0.0195337 0.0206382 0.021247 0.0220256 0.0230879 0.0243971 0.0262824 0.0287227 0.0323824 0.0361688 0.0381607 0.0377821 0.0359148 0.0321705 0.0270992 0.0220907 0.0163539 0.0110406 0.00645143 0.00508994 0.00866057 0.0134853 0.0142755 0.0196763 0.0214253 0.023211 0.0277232 0.0262208 0.0241002 0.0209636 0.0203755 0.020049 0.020271 0.0208443 0.0214799 0.0223282 0.0235318 0.0251065 0.0275235 0.0308499 0.0359248 0.0404087 0.0415141 0.0391551 0.0350969 0.0305124 0.0255174 0.0208516 0.0156978 0.0107594 0.00588246 0.0039805 0.00613425 0.0113236 0.0163393 0.0256961 0.0271639 0.0247715 0.0252523 0.0220144 0.0215559 0.0203914 0.0202676 0.0201862 0.0204464 0.0210549 0.0216106 0.0224094 0.0235913 0.0251604 0.0276188 0.0309502 0.0360343 0.0397554 0.0404697 0.0382202 0.0336715 0.028971 0.0240795 0.0195541 0.0145766 0.00950761 0.00431197 0.000931779 0.00202583 0.0065848 0.0128279 0.0159824 0.0162278 0.0185174 0.0176374 0.0159534 0.018841 0.020181 0.0204594 0.0205734 0.0207332 0.0209817 0.021378 0.0219825 0.0228702 0.0240242 0.0257282 0.0279464 0.0311837 0.0330546 0.0352013 0.0354599 0.0317455 0.0275424 0.0227847 0.0183849 0.0135487 0.008776 0.00441476 0.00167471 0.00297001 0.00655374 0.0111708 0.0109679 0.0123152 0.0165205 0.0196272 0.0209498 0.0203987 0.021065 0.0208063 0.0207738 0.0207751 0.0208679 0.0210843 0.0214665 0.0220346 0.0227466 0.0236911 0.024825 0.0264618 0.0284654 0.0316179 0.0328347 0.0306231 0.0267708 0.0218445 0.0171943 0.0121029 0.00770974 0.00497822 0.0055599 0.00802284 0.00980638 0.0127312 0.0128025 0.0140053 0.016255 0.01842 0.0207683 0.0208801 0.0213516 0.0210331 0.0209181 0.0207984 0.0205984 0.0206133 0.020718 0.0208844 0.0210618 0.0211369 0.021133 0.0209731 0.022846 0.0253596 0.0264577 0.0270809 0.0249894 0.0206311 0.0161345 0.0113397 0.00808658 0.00810316 0.0110757 0.0137844 0.0147022 0.0161561 0.0161472 0.0170257 0.018559 0.0198526 0.0214321 0.0214307 0.0215302 0.0211099 0.0208904 0.0206697 0.0203581 0.0202171 0.0201033 0.0199479 0.0197094 0.0191348 0.0181897 0.0164879 0.0162726 0.0175979 0.0191505 0.0218756 0.0224933 0.0200716 0.0175485 0.0141976 0.0130339 0.0148152 0.0174488 0.0196065 0.0197226 0.0196179 0.019144 0.0196055 0.0203189 0.0208298 0.0218804 0.0217157 0.0215785 0.0211269 0.0208212 0.0205381 0.0201182 0.0198596 0.0195679 0.019165 0.0186604 0.0177548 0.0165204 0.0143348 0.0126445 0.0125306 0.0139518 0.0173075 0.020158 0.0212286 0.0222497 0.0223315 0.0233633 0.0258703 0.0267552 0.0256171 0.023535 0.0220432 0.0209133 0.0208516 0.021104 0.0211996 0.0220211 0.0218099 0.0214409 0.0210127 0.020662 0.0203703 0.0199484 0.0196412 0.0192569 0.0187236 0.0180721 0.0170331 0.0157136 0.0134035 0.0110147 0.00864265 0.00862876 0.0101252 0.0128588 0.0173045 0.0212867 0.0261434 0.0303179 0.0317466 0.0301359 0.0273292 0.0245674 0.0226863 0.0212038 0.0209092 0.0207991 0.0206208 0.0218613 0.0218264 0.0212416 0.0208925 0.0204956 0.0202296 0.0198706 0.0195563 0.0191293 0.0185486 0.0178714 0.0169066 0.0158464 0.0141363 0.0124026 0.0102524 0.00949952 0.0100576 0.0125477 0.0172192 0.0214442 0.0268129 0.0304275 0.0306776 0.0288212 0.0263515 0.0240882 0.0224799 0.0205159 0.0198017 0.0202315 0.0203269 0.0222644 0.0222642 0.0208957 0.0206619 0.0203096 0.0201341 0.0198523 0.0195526 0.0191359 0.0185767 0.0179282 0.0170665 0.016189 0.0149446 0.0138251 0.0124858 0.012069 0.012663 0.0145998 0.0181554 0.0215236 0.0251836 0.0273024 0.0273999 0.0262766 0.0246297 0.0231345 0.0213739 0.0194857 0.0191706 0.0204399 0.0212032 0.0239592 0.0240491 0.0213905 0.0208806 0.0203218 0.0201217 0.0199264 0.0196644 0.019274 0.0187576 0.0181696 0.0174395 0.0167425 0.0158745 0.0151909 0.0144577 0.014285 0.0147479 0.0160461 0.0183819 0.0205986 0.0229041 0.0242582 0.0244504 0.0239508 0.0229967 0.0223849 0.0214405 0.022366 0.0216201 0.020089 0.0192012 0.0185741 0.0204533 0.0207932 0.020355 0.0201988 0.0201083 0.0199395 0.0197224 0.0193956 0.018954 0.0184515 0.0178493 0.0172825 0.0166418 0.0161806 0.015766 0.0157462 0.016146 0.0170032 0.0184575 0.0198646 0.0212959 0.0221883 0.0225019 0.0223679 0.022188 0.0219427 0.0233902 0.0245971 0.02157 0.0196167 0.0189348 0.0169465 0.0185515 0.0204779 0.0201348 0.0201203 0.0200398 0.020044 0.0198823 0.019593 0.0192019 0.0187671 0.018272 0.0178144 0.0173363 0.0170035 0.0167462 0.0167508 0.0170298 0.0175773 0.0184661 0.0193298 0.0201996 0.0207525 0.0209592 0.0208462 0.0205898 0.0200813 0.0200823 0.0213566 0.0198066 0.0174504 0.0160395 0.0112531 0.012374 0.0173227 0.0187612 0.019687 0.0199931 0.0199837 0.0198939 0.0196795 0.0193622 0.0190078 0.0186116 0.0182441 0.0178774 0.0176181 0.0174332 0.0174287 0.0176086 0.0179522 0.01849 0.0190208 0.0195338 0.0198772 0.0199742 0.0199497 0.0195909 0.019244 0.0177385 0.017829 0.0171369 0.0151223 0.0145352 0.0114256 0.0124146 0.0160201 0.0178683 0.0192824 0.019782 0.0203679 0.0201468 0.0198783 0.0195605 0.0192384 0.0189022 0.0185968 0.0183059 0.0180938 0.0179446 0.0179165 0.0180111 0.0182102 0.0185225 0.0188324 0.0191232 0.0193099 0.0193503 0.0193261 0.0191211 0.0189621 0.0176608 0.0167019 0.0166368 0.0177007 0.020051 0.0212006 0.0202826 0.019286 0.0199912 0.0203463 0.0204454 0.020441 0.0201935 0.0199387 0.0196559 0.0193798 0.0190996 0.0188449 0.0186069 0.0184254 0.0182938 0.018246 0.0182829 0.0183916 0.0185717 0.0187571 0.018932 0.0190514 0.0191002 0.0191269 0.0191544 0.0191983 0.0190766 0.0179346 0.019313 0.0204333 0.0210413 0.023585 0.0226221 0.0208213 0.0207668 0.0207205 0.0206053 0.0205917 0.020288 0.0200164 0.0197429 0.0194905 0.019244 0.0190214 0.018816 0.0186528 0.0185293 0.0184671 0.0184673 0.0185222 0.0186297 0.0187472 0.0188658 0.0189502 0.0190126 0.0190602 0.0191975 0.0193717 0.0198335 0.0196041 0.0212497 0.0226383 0.0227431 0.0232942 0.0223563 0.0216439 0.0213993 0.0211628 0.020866 0.0205617 0.0202646 0.0200122 0.0197661 0.0195418 0.0193236 0.0191236 0.0189369 0.0187823 0.0186603 0.018589 0.0185714 0.018605 0.0186897 0.0187935 0.0189139 0.0190167 0.0191252 0.0192171 0.019412 0.0195976 0.0201156 0.0202463 0.0213124 0.0223599 0.0226581 0.023002 0.0224609 0.0219604 0.0215641 0.0212208 0.020858 0.0204922 0.0202172 0.0199861 0.0197631 0.0195584 0.0193567 0.0191672 0.0189858 0.0188307 0.0187037 0.0186265 0.0186037 0.0186391 0.0187353 0.0188606 0.0190161 0.0191605 0.0193187 0.0194571 0.0196805 0.0198907 0.0203532 0.0206497 0.0214146 0.022091 0.0223247 0.0224769 0.0221447 0.0218347 0.0214552 0.0211258 0.0207749 
        </DataArray>
        <DataArray Name="vy" NumberOfComponents="1" type="Float32" format="ascii">
0.0117475 0.0117462 0.0117674 0.0118134 0.0118756 0.0119514 0.0120297 0.0121042 0.0121553 0.0121839 0.0121638 0.0121244 0.0120413 0.0119744 0.0119158 0.0119051 0.0119533 0.0120697 0.012264 0.0125439 0.0128654 0.0132638 0.0135064 0.0138625 0.0136073 0.0134377 0.0129496 0.0125822 0.0122503 0.0120393 0.011873 0.0117937 0.0119716 0.011949 0.0119586 0.0120021 0.0120671 0.012148 0.0122252 0.0122911 0.0123121 0.012298 0.0122017 0.0120871 0.0119046 0.0117712 0.0116593 0.0116323 0.0116859 0.0118171 0.0120162 0.0122878 0.01258 0.0129447 0.0131891 0.0134994 0.0134392 0.0133925 0.0130886 0.0128319 0.0125414 0.0123367 0.0121534 0.0120452 0.0121564 0.0121204 0.0121293 0.0121825 0.0122639 0.0123628 0.0124506 0.0125156 0.0125085 0.012445 0.0122479 0.0120275 0.0116886 0.0114538 0.0112611 0.011218 0.0113054 0.0114906 0.0117464 0.0120562 0.0123752 0.0127492 0.0130382 0.013342 0.0134147 0.0134327 0.0132532 0.0130659 0.012807 0.0125954 0.0123905 0.0122526 0.012313 0.0122728 0.0122941 0.0123723 0.0124854 0.012615 0.0127214 0.0127856 0.0127385 0.0126024 0.0122546 0.0118806 0.0113095 0.0109371 0.0106504 0.0106152 0.0107901 0.0110852 0.0114491 0.0118359 0.0122186 0.0126413 0.0130136 0.0133627 0.0135712 0.0136428 0.0135425 0.0133641 0.0130951 0.0128453 0.0126022 0.012429 0.0124241 0.0123927 0.0124441 0.0125676 0.0127353 0.0129177 0.0130669 0.0131525 0.0130889 0.0128841 0.0123463 0.0117401 0.0107558 0.010146 0.00968442 0.0096627 0.0100336 0.0105617 0.0111551 0.01169 0.0121857 0.0126897 0.0131724 0.0135731 0.013921 0.013986 0.0139179 0.0136954 0.0133757 0.0130607 0.0127643 0.0125537 0.0125038 0.0124948 0.0125952 0.0127858 0.0130306 0.0132849 0.0134967 0.0136207 0.013553 0.0132543 0.0124206 0.0114598 0.00982195 0.00884305 0.00819511 0.00830255 0.00907389 0.0100288 0.0109741 0.011709 0.0123325 0.0129298 0.0135489 0.0140052 0.0145153 0.0145311 0.0144421 0.0141074 0.0136805 0.0132641 0.012894 0.0126417 0.0125121 0.0125437 0.0127147 0.0129973 0.013351 0.0137209 0.0140767 0.014361 0.0144672 0.0141745 0.0130325 0.0114291 0.00848422 0.00682265 0.0056849 0.00586982 0.00746326 0.00932287 0.0110139 0.0120739 0.0128214 0.0134718 0.0141974 0.0146539 0.0154307 0.0151975 0.0150418 0.0145211 0.0139321 0.0133883 0.0129344 0.012646 0.0124404 0.0125359 0.0128011 0.0132002 0.0136992 0.0142431 0.0148634 0.0154748 0.0159322 0.0155615 0.0137238 0.0111616 0.00622624 0.00340753 0.0018105 0.00242352 0.00544185 0.00887008 0.0116878 0.0131711 0.0139357 0.0145254 0.0152884 0.015661 0.016682 0.0161278 0.0157344 0.0149009 0.0140635 0.0133746 0.0128465 0.0125459 0.0122499 0.0124188 0.0127844 0.013313 0.0139976 0.0148296 0.0159675 0.0173052 0.0185536 0.0181306 0.0156639 0.0112569 0.00331896 -0.000283087 -0.00344094 -0.00386583 0.00112191 0.00763762 0.0130446 0.0153918 0.0160025 0.0162758 0.0167168 0.0168502 0.0186925 0.0168942 0.0162475 0.0151385 0.0140018 0.0131888 0.0126016 0.0123118 0.0119017 0.012167 0.0126434 0.0133149 0.0142399 0.0154919 0.0174045 0.0196547 0.0214362 0.0191703 0.0138788 0.00949962 0.000195525 -0.00426701 -0.00752651 -0.00818034 -0.00272299 0.00612836 0.0147318 0.0186974 0.0192809 0.019129 0.019032 0.018682 0.020908 0.0180757 0.0164669 0.0148729 0.0134167 0.0125847 0.01206 0.0118683 0.0114544 0.0117609 0.0122837 0.0130343 0.0141341 0.0157626 0.0182804 0.0210131 0.0217569 0.0168138 0.0107905 0.00591331 -0.00173668 -0.00552315 -0.00750611 -0.00764715 -0.00462915 0.00339882 0.0158161 0.022463 0.0231822 0.0227228 0.0205284 0.0203846 0.0258783 0.0173536 0.0148117 0.0143728 0.0126918 0.011974 0.011494 0.0113715 0.0108577 0.0111828 0.0116989 0.0124463 0.0135969 0.0153675 0.0180435 0.0205033 0.0198667 0.0143633 0.009148 0.00410322 -0.000418225 -0.00210259 -0.00374416 -0.00496368 -0.00471233 -1.4905e-05 0.0128107 0.0228454 0.0259607 0.0261197 0.0228041 0.0220572 0.0286166 0.0193999 0.0136673 0.0118892 0.0108401 0.010704 0.0106236 0.0106866 0.01032 0.0104988 0.0108479 0.011388 0.0122619 0.0136227 0.0156815 0.0173532 0.0170507 0.0132251 0.00858177 0.0056765 0.00368396 0.00289601 0.00192361 0.000808867 0.000284847 0.00228217 0.0111059 0.0188447 0.0249018 0.0263824 0.0221571 0.0195673 0.022187 0.018342 0.0152951 0.0139727 0.0119351 0.0108001 0.0104245 0.0102792 0.00983507 0.00977866 0.00986486 0.0100713 0.0104435 0.011029 0.0120095 0.0129996 0.0141541 0.0129476 0.0111068 0.00951792 0.00843784 0.0078113 0.00700627 0.00599998 0.00514885 0.00564648 0.0105741 0.0145659 0.0201649 0.01998 0.0149169 0.0196898 0.022105 0.017581 0.0173158 0.0174044 0.0140211 0.0115329 0.0105559 0.0100423 0.00931158 0.00902084 0.00879587 0.00857475 0.00826223 0.00780132 0.00728487 0.00764898 0.0116106 0.0143812 0.0151882 0.0143247 0.013403 0.0125645 0.0118191 0.0109863 0.0101141 0.00943977 0.0105599 0.0118823 0.0142235 0.0128001 0.0110429 0.0207414 0.02346 0.0218298 0.0173584 0.0155505 0.0131503 0.0111666 0.0102911 0.0096883 0.00895319 0.0084221 0.00790638 0.00732946 0.00647584 0.00524253 0.00368842 0.0041468 0.00999115 0.0142084 0.0178364 0.0186026 0.0180201 0.0171184 0.0164945 0.0160081 0.0153342 0.0142961 0.0127069 0.0091725 0.00921959 0.0101564 0.0112126 0.0169993 0.0194736 0.0207232 0.016396 0.0145146 0.0127065 0.0112234 0.0102989 0.00954657 0.00871537 0.00800672 0.00729027 0.00649438 0.00537839 0.00379561 0.0018313 0.00231004 0.00790916 0.011882 0.0188442 0.0222918 0.0224985 0.0217225 0.0211299 0.0205768 0.0192915 0.0163399 0.0121092 0.00682304 0.0062732 0.00837401 0.0105347 0.0151895 0.0169977 0.01778 0.0158617 0.0142745 0.0125872 0.0113303 0.0103314 0.00947395 0.00867626 0.0078297 0.00697727 0.00606731 0.00485526 0.00317887 0.000939394 0.000482872 0.00471945 0.010152 0.0183624 0.0246067 0.026754 0.02661 0.0262625 0.0254455 0.0224163 0.0161378 0.00995865 0.00504271 0.0045357 0.00707678 0.00992925 0.0135387 0.0147424 0.0158262 0.0147928 0.0139782 0.0127154 0.0116296 0.0105515 0.00958218 0.00876884 0.00787354 0.00700269 0.00614137 0.00509777 0.0037686 0.00191458 0.000913412 0.00295693 0.0090511 0.0164433 0.024404 0.0289703 0.0305803 0.0304711 0.0285905 0.0225758 0.0138492 0.00632037 0.00295288 0.00363252 0.00678617 0.00973901 0.0127554 0.0140226 0.0148745 0.0143337 0.0140158 0.0129444 0.0119371 0.0107901 0.00975324 0.00900536 0.00809649 0.00725504 0.00647942 0.00565471 0.00471929 0.00345583 0.00248635 0.00318728 0.00759087 0.0139151 0.0211072 0.0284308 0.0315309 0.032367 0.0301498 0.0216149 0.0116074 0.00478261 0.00320735 0.00471576 0.00767927 0.0100756 0.0123423 0.0135442 0.0142704 0.0140398 0.0142522 0.0133144 0.012362 0.0111415 0.0100419 0.00927072 0.00841849 0.0076816 0.00705849 0.00650022 0.0059747 0.00540369 0.00491423 0.00522967 0.00739118 0.0123153 0.0179009 0.0253113 0.0281529 0.0292881 0.0269622 0.0190611 0.0107713 0.0066449 0.00606443 0.0071846 0.00928275 0.011051 0.012436 0.0136099 0.0138782 0.0136695 0.0146822 0.0137675 0.0127556 0.0114434 0.0103009 0.00958548 0.00880093 0.00817218 0.00768136 0.00732051 0.00707392 0.00699406 0.00706049 0.00780829 0.0093944 0.0128549 0.0165543 0.0213177 0.0232991 0.0236646 0.021361 0.0162489 0.0116195 0.00912721 0.0088104 0.00945049 0.0109702 0.0119758 0.0127435 0.0137511 0.0134466 0.0129174 0.0148928 0.0140823 0.0130731 0.0117434 0.0105821 0.00984501 0.0091635 0.00867235 0.00832533 0.00812535 0.0080443 0.00818767 0.0084468 0.00924425 0.0103343 0.0126554 0.0149161 0.0180196 0.019261 0.0194085 0.0180071 0.0150331 0.0124084 0.0109222 0.0107306 0.0111159 0.012738 0.014307 0.0122876 0.0129209 0.0114734 0.0113 0.0166304 0.015441 0.0135132 0.0120125 0.0107807 0.0101308 0.00952647 0.00914682 0.00890829 0.00881493 0.00882867 0.00906243 0.00940423 0.0101804 0.0110486 0.0126612 0.0140157 0.0157983 0.0165081 0.0165726 0.0157074 0.0140855 0.0126803 0.0119373 0.0119343 0.012755 0.0141164 0.0142681 0.0117397 0.0126748 0.0105647 0.0101514 0.0172441 0.0165537 0.0139951 0.0123443 0.0110143 0.0103009 0.00981807 0.00956332 0.0094319 0.00942314 0.00949302 0.00973561 0.0100477 0.0106687 0.0113017 0.012381 0.0132386 0.0143256 0.0147567 0.0148081 0.0143365 0.0134345 0.0126787 0.0123134 0.0122927 0.0125961 0.0131703 0.0142047 0.0143999 0.0146547 0.012214 0.0103369 0.0146498 0.0160472 0.014182 0.0124068 0.0110867 0.0104678 0.0100869 0.00992706 0.00987255 0.00991637 0.0100169 0.0102449 0.0105206 0.0110092 0.0114873 0.0122297 0.0127858 0.0134411 0.0136947 0.0137158 0.0134285 0.0129196 0.0125454 0.0123406 0.0124331 0.0117257 0.0116664 0.0152695 0.017022 0.0155681 0.0131082 0.0117934 0.0122378 0.0150996 0.0141906 0.0124653 0.0111684 0.010412 0.0102541 0.0102253 0.0102503 0.0103354 0.0104523 0.0106535 0.0108813 0.0112441 0.0115896 0.0120858 0.0124551 0.0128642 0.0130269 0.0130485 0.012897 0.0126455 0.0125269 0.0125966 0.0129525 0.01269 0.0119689 0.0145674 0.0186914 0.0183827 0.0172544 0.0145801 0.00794486 0.0107795 0.0119347 0.0113432 0.0107384 0.0103881 0.0104093 0.0104785 0.0105612 0.0106711 0.0107946 0.01097 0.0111603 0.0114331 0.01169 0.0120286 0.0122791 0.0125378 0.012644 0.0126674 0.0125915 0.0125003 0.0125103 0.0127755 0.0132309 0.0137687 0.0132078 0.0154101 0.0197831 0.017704 0.0175578 0.0145622 0.00743457 0.00910576 0.0105259 0.0105347 0.0104313 0.0106599 0.0107072 0.0107875 0.0108757 0.0109802 0.0110931 0.0112388 0.011393 0.0115945 0.0117823 0.0120098 0.012179 0.0123428 0.012414 0.012439 0.0124131 0.0124082 0.0124923 0.0128069 0.0133085 0.014117 0.0142751 0.0157096 0.0184605 0.0151004 0.0143553 0.0129376 0.0102742 0.0108794 0.0109224 0.0107801 0.010666 0.0108487 0.0109405 0.0110378 0.0111331 0.0112333 0.0113375 0.0114602 0.0115874 0.0117383 0.0118772 0.0120292 0.0121415 0.0122408 0.0122855 0.012306 0.0123043 0.0123395 0.0124437 0.0127302 0.013154 0.0138414 0.0143383 0.0150993 0.0167618 0.0153783 0.0143768 0.0128615 0.0110624 0.0109931 0.0108326 0.0107699 0.0107813 0.0112009 0.0112536 0.0113177 0.0113906 0.0114718 0.0115605 0.0116613 0.011765 0.0118759 0.0119745 0.0120668 0.0121311 0.012176 0.0121927 0.0121993 0.0122071 0.0122581 0.0123741 0.012624 0.012991 0.0135172 0.0140442 0.0144893 0.0153432 0.0143519 0.0138235 0.0128117 0.0119466 0.0116138 0.0113571 0.0112202 0.0111849 0.0114721 0.0115041 0.0115492 0.0116091 0.0116793 0.0117592 0.0118455 0.011932 0.0120108 0.0120744 0.0121128 0.0121297 0.0121186 0.0121007 0.0120819 0.0120843 0.0121334 0.0122445 0.0124525 0.0127589 0.013148 0.0136136 0.0139148 0.0144651 0.0139959 0.0136882 0.012945 0.0123019 0.0119102 0.0116677 0.0115223 0.0114781 
        </DataArray>
        <DataArray Name="vz" NumberOfComponents="1" type="Float32" format="ascii">
0 0 0 0 0 0 0 0 0 0 0 0 0 0 0 0 0 0 0 0 0 0 0 0 0 0 0 0 0 0 0 0 0 0 0 0 0 0 0 0 0 0 0 0 0 0 0 0 0 0 0 0 0 0 0 0 0 0 0 0 0 0 0 0 0 0 0 0 0 0 0 0 0 0 0 0 0 0 0 0 0 0 0 0 0 0 0 0 0 0 0 0 0 0 0 0 0 0 0 0 0 0 0 0 0 0 0 0 0 0 0 0 0 0 0 0 0 0 0 0 0 0 0 0 0 0 0 0 0 0 0 0 0 0 0 0 0 0 0 0 0 0 0 0 0 0 0 0 0 0 0 0 0 0 0 0 0 0 0 0 0 0 0 0 0 0 0 0 0 0 0 0 0 0 0 0 0 0 0 0 0 0 0 0 0 0 0 0 0 0 0 0 0 0 0 0 0 0 0 0 0 0 0 0 0 0 0 0 0 0 0 0 0 0 0 0 0 0 0 0 0 0 0 0 0 0 0 0 0 0 0 0 0 0 0 0 0 0 0 0 0 0 0 0 0 0 0 0 0 0 0 0 0 0 0 0 0 0 0 0 0 0 0 0 0 0 0 0 0 0 0 0 0 0 0 0 0 0 0 0 0 0 0 0 0 0 0 0 0 0 0 0 0 0 0 0 0 0 0 0 0 0 0 0 0 0 0 0 0 0 0 0 0 0 0 0 0 0 0 0 0 0 0 0 0 0 0 0 0 0 0 0 0 0 0 0 0 0 0 0 0 0 0 0 0 0 0 0 0 0 0 0 0 0 0 0 0 0 0 0 0 0 0 0 0 0 0 0 0 0 0 0 0 0 0 0 0 0 0 0 0 0 0 0 0 0 0 0 0 0 0 0 0 0 0 0 0 0 0 0 0 0 0 0 0 0 0 0 0 0 0 0 0 0 0 0 0 0 0 0 0 0 0 0 0 0 0 0 0 0 0 0 0 0 0 0 0 0 0 0 0 0 0 0 0 0 0 0 0 0 0 0 0 0 0 0 0 0 0 0 0 0 0 0 0 0 0 0 0 0 0 0 0 0 0 0 0 0 0 0 0 0 0 0 0 0 0 0 0 0 0 0 0 0 0 0 0 0 0 0 0 0 0 0 0 0 0 0 0 0 0 0 0 0 0 0 0 0 0 0 0 0 0 0 0 0 0 0 0 0 0 0 0 0 0 0 0 0 0 0 0 0 0 0 0 0 0 0 0 0 0 0 0 0 0 0 0 0 0 0 0 0 0 0 0 0 0 0 0 0 0 0 0 0 0 0 0 0 0 0 0 0 0 0 0 0 0 0 0 0 0 0 0 0 0 0 0 0 0 0 0 0 0 0 0 0 0 0 0 0 0 0 0 0 0 0 0 0 0 0 0 0 0 0 0 0 0 0 0 0 0 0 0 0 0 0 0 0 0 0 0 0 0 0 0 0 0 0 0 0 0 0 0 0 0 0 0 0 0 0 0 0 0 0 0 0 0 0 0 0 0 0 0 0 0 0 0 0 0 0 0 0 0 0 0 0 0 0 0 0 0 0 0 0 0 0 0 0 0 0 0 0 0 0 0 0 0 0 0 0 0 0 0 0 0 0 0 0 0 0 0 0 0 0 0 0 0 0 0 0 0 0 0 0 0 0 0 0 0 0 0 0 0 0 0 0 0 0 0 0 0 0 0 0 0 0 0 0 0 0 0 0 0 0 0 0 0 0 0 0 0 0 0 0 0 0 0 0 0 0 0 0 0 0 0 0 0 0 0 0 0 0 0 0 0 0 0 0 0 0 0 0 0 0 0 0 0 0 0 0 0 0 0 0 0 0 0 0 0 0 0 0 0 0 0 0 0 0 0 0 0 0 0 0 0 0 0 0 0 0 0 0 0 0 0 0 0 0 0 0 0 0 0 0 0 0 0 0 0 0 0 0 0 0 0 0 0 0 0 0 0 0 0 0 0 0 0 0 0 0 0 0 0 0 0 0 0 0 0 0 0 0 0 0 0 0 0 0 0 0 0 0 0 0 0 0 0 0 0 0 0 0 0 0 0 0 0 0 0 0 0 0 0 0 0 0 0 0 0 0 0 0 0 0 0 0 0 0 0 0 0 0 0 0 0 0 0 0 0 0 0 0 0 0 0 0 0 0 0 0 0 0 0 0 0 0 0 0 0 0 0 0 0 0 0 0 0 0 0 0 0 0 0 0 0 0 0 0 0 0 0 0 0 0 0 0 0 0 0 0 0 0 0 0 0 0 0 0 0 0 0 0 0 0 0 0 0 0 0 0 0 0 0 0 
        </DataArray>
        <DataArray Name="p" NumberOfComponents="1" type="Float32" format="ascii">