<?xml version="1.0"?>
<VTKFile type="StructuredGrid" version="0.1" byte_order="LittleEndian">
  <StructuredGrid WholeExtent="0 32 0 32 0 1">
    <Piece Extent="0 32 0 32 0 1">
      <PointData>
      </PointData>
      <CellData>
        <DataArray Name="vx" NumberOfComponents="1" type="Float32" format="ascii">
0.0204948 0.0202613 0.0200592 0.0198622 0.0196774 0.0194868 0.019302 0.0191134 0.0189453 0.0187946 0.0186946 0.0186487 0.018671 0.0187723 0.0189158 0.0191135 0.0193085 0.0195239 0.0197151 0.0199613 0.0201749 0.0205308 0.0207763 0.0212061 0.0215823 0.0216911 0.0218767 0.02178 0.02158 0.0213129 0.0210283 0.0207437 0.0203387 0.0201452 0.0199725 0.0197957 0.0196198 0.0194275 0.0192329 0.0190253 0.0188389 0.0186665 0.0185615 0.0185241 0.0185855 0.0187605 0.0189932 0.0193006 0.0195946 0.0198903 0.0201378 0.0203996 0.0206144 0.0208999 0.0210983 0.021368 0.0215613 0.0215834 0.0216104 0.0214578 0.0212652 0.0210174 0.0207788 0.0205419 0.0201696 0.0200116 0.0198629 0.0196982 0.0195207 0.0193124 0.0190929 0.0188484 0.0186297 0.0184213 0.0183106 0.0182904 0.0184186 0.0187179 0.0190944 0.0195713 0.0200061 0.0204034 0.0207077 0.0209756 0.0211697 0.0213753 0.0214841 0.0215981 0.0216235 0.0215293 0.0214247 0.021203 0.0209848 0.0207409 0.0205308 0.0203334 0.0199963 0.0198706 0.0197414 0.0195826 0.0193952 0.0191602 0.0189037 0.018605 0.0183344 0.0180566 0.0179149 0.0178884 0.0181017 0.0185889 0.0191864 0.0199386 0.0205911 0.0211263 0.021482 0.0217305 0.0218715 0.0219807 0.0219695 0.0219306 0.0217758 0.021525 0.0212857 0.0209739 0.0207194 0.0204721 0.0202851 0.0201239 0.0198172 0.019724 0.019612 0.0194535 0.0192467 0.018971 0.018659 0.0182757 0.0179138 0.0175037 0.0172888 0.0172291 0.0175603 0.018352 0.0193132 0.0204981 0.0214668 0.0221646 0.0225344 0.0227059 0.022732 0.0227058 0.0225263 0.022315 0.0219557 0.0215167 0.021144 0.0207288 0.0204396 0.0201891 0.0200287 0.0199066 0.019639 0.0195881 0.0195012 0.0193511 0.0191321 0.0188217 0.0184484 0.017946 0.0174071 0.016712 0.0162617 0.0160148 0.0164824 0.0177353 0.019267 0.0212307 0.02279 0.0237472 0.0240594 0.0240044 0.0237744 0.0235171 0.0230846 0.0226827 0.0220609 0.0213868 0.0209118 0.0203878 0.0200923 0.0198579 0.0197453 0.0196781 0.0194757 0.0194835 0.0194346 0.0193047 0.01908 0.0187299 0.0182555 0.0175298 0.0166277 0.0153923 0.0145681 0.0140834 0.01475 0.0167235 0.0191625 0.0222996 0.0247552 0.0260592 0.0261828 0.0256736 0.0249678 0.0243326 0.0235295 0.022889 0.0219491 0.0209966 0.0204476 0.0198405 0.0196046 0.0194412 0.0194228 0.0194425 0.0193456 0.0194409 0.0194617 0.0193934 0.0192068 0.0188583 0.0182757 0.0172466 0.0157697 0.0138047 0.0124881 0.0118012 0.0129278 0.0153911 0.0183554 0.023025 0.0271434 0.0293029 0.0292179 0.0278893 0.0263384 0.0250507 0.0236735 0.0228477 0.0213972 0.0200772 0.0197062 0.0190548 0.0189742 0.0189436 0.0190681 0.0192123 0.0193068 0.0195113 0.0196287 0.0196598 0.0195449 0.0192196 0.018489 0.0170865 0.015016 0.012737 0.0123339 0.0128837 0.0144236 0.0167576 0.0196215 0.0242026 0.0288001 0.0319021 0.032074 0.0300494 0.0275354 0.025407 0.023291 0.0222209 0.0201856 0.0184744 0.0184423 0.0179277 0.018181 0.0184114 0.0187469 0.0190532 0.0193485 0.0196874 0.0199468 0.0201524 0.0202193 0.0200887 0.0194884 0.0182883 0.016681 0.0164332 0.0180336 0.0194818 0.0214462 0.0243971 0.027165 0.0286579 0.0300327 0.0323899 0.0332009 0.0309967 0.0278407 0.0248079 0.021926 0.0213227 0.0178737 0.0155049 0.0171493 0.016925 0.0175211 0.0180119 0.0185112 0.0189747 0.0196019 0.0200499 0.0204585 0.0208894 0.0212358 0.0215214 0.0214523 0.0213158 0.0213362 0.0240241 0.025541 0.0263796 0.0281202 0.02808 0.0275327 0.0256139 0.0248822 0.0259824 0.0276035 0.027608 0.0256382 0.022605 0.0198059 0.0195076 0.0158136 0.0135676 0.015653 0.0159808 0.0171633 0.0179958 0.0186111 0.0191627 0.0198585 0.0204103 0.0209861 0.0216842 0.022428 0.0233346 0.0243325 0.0256155 0.0279035 0.029233 0.0296565 0.0313807 0.0309546 0.0281135 0.0246099 0.0204324 0.0174017 0.0167905 0.0176204 0.0189914 0.0202657 0.0180718 0.0176793 0.017258 0.0182331 0.0200404 0.0191538 0.0187544 0.0180893 0.018587 0.0188812 0.0194084 0.020351 0.0208909 0.0215632 0.0224891 0.0236121 0.025221 0.0272819 0.030265 0.0332605 0.0344457 0.0345185 0.0339247 0.0310794 0.0269205 0.0225692 0.0175581 0.012938 0.00952657 0.00899466 0.0111392 0.014182 0.0143582 0.017617 0.0192562 0.0217852 0.0253488 0.0252896 0.0240757 0.0208172 0.0202358 0.0198418 0.020046 0.0204931 0.0210633 0.0218046 0.0228602 0.0242145 0.0262821 0.0290321 0.0331393 0.0360175 0.0370428 0.0364167 0.0335355 0.02972 0.0253999 0.0212417 0.0166228 0.0122503 0.00809545 0.00716942 0.00876281 0.0124142 0.0166077 0.0244027 0.0256277 0.0222089 0.0216475 0.0199309 0.0203822 0.0198961 0.0199498 0.0198869 0.0201478 0.0206608 0.0211742 0.0218779 0.0229087 0.0242551 0.0263442 0.0291076 0.0331887 0.035621 0.0363752 0.035702 0.032356 0.0283247 0.0240433 0.0199647 0.0154911 0.010977 0.00654588 0.00410103 0.00475075 0.00808737 0.0134299 0.015988 0.015275 0.0147918 0.0147365 0.015253 0.0173707 0.0190196 0.0197932 0.0200642 0.0203315 0.0206538 0.0209986 0.0215307 0.0223184 0.0233381 0.0248612 0.0267993 0.0296615 0.0312709 0.0325684 0.0332066 0.0307141 0.0269971 0.0228412 0.0187735 0.0144107 0.0099967 0.00634134 0.00371657 0.00418017 0.00752601 0.0119531 0.0123695 0.0139742 0.019382 0.0199238 0.018678 0.0197464 0.0205299 0.0204891 0.0204847 0.0204816 0.0205791 0.0207611 0.0210955 0.0215936 0.0222258 0.0230495 0.0240705 0.025405 0.0269714 0.0285153 0.0300449 0.0295255 0.0262488 0.0220681 0.0176771 0.0131299 0.00909743 0.007713 0.00795205 0.00866508 0.0104506 0.0131313 0.0135501 0.0146739 0.0187127 0.0206299 0.0205548 0.0207183 0.0210047 0.0207468 0.0206434 0.0205261 0.0203882 0.0203795 0.020476 0.0206298 0.0208321 0.0209168 0.0210868 0.0209335 0.0232191 0.0238841 0.0245211 0.0265419 0.0245667 0.0210893 0.0168043 0.0126199 0.00969842 0.0111519 0.0141264 0.0148515 0.0153297 0.0165313 0.0166619 0.0174486 0.0197467 0.0210428 0.0215524 0.0216017 0.0215297 0.0210493 0.0207569 0.0204907 0.0201983 0.0200466 0.0199445 0.0198133 0.019646 0.0191861 0.0185483 0.0173536 0.0179506 0.0196174 0.0208949 0.0227099 0.0228478 0.0209271 0.0177932 0.0143791 0.0125635 0.0125536 0.0152405 0.018331 0.018935 0.0193071 0.0191725 0.0197683 0.0210807 0.0218221 0.0223401 0.0220599 0.0217001 0.0211409 0.02074 0.0204071 0.0199799 0.0197359 0.0194895 0.0191575 0.0187573 0.0180376 0.0170359 0.0154732 0.0143223 0.0157037 0.0164158 0.0174972 0.0203237 0.0215963 0.0216201 0.021448 0.022663 0.0227303 0.0230776 0.0238584 0.0225463 0.0215718 0.0207 0.0208451 0.021754 0.0222252 0.0228212 0.022393 0.0216983 0.0210873 0.0205992 0.0202496 0.0198189 0.0195359 0.0192035 0.018746 0.0181933 0.0173227 0.0161795 0.014366 0.0123453 0.0112939 0.0107524 0.011439 0.0140041 0.0172107 0.0211447 0.0248054 0.028314 0.0294107 0.0279002 0.0261406 0.0236808 0.0220815 0.0207418 0.0206853 0.0216569 0.0221665 0.0230095 0.0224903 0.0215061 0.0209388 0.0204175 0.0201053 0.0196693 0.0194199 0.0190789 0.0185959 0.018026 0.0172104 0.0162561 0.0148191 0.0131527 0.0115075 0.0104874 0.0106098 0.0126317 0.0162454 0.0208484 0.0257199 0.0290454 0.0294957 0.0276096 0.0255313 0.0232591 0.0216739 0.0194372 0.0191192 0.021178 0.0225686 0.0243685 0.0233295 0.0211791 0.0205557 0.0200749 0.0198853 0.0196312 0.0194115 0.0190844 0.0186131 0.0180575 0.0173109 0.0165145 0.0154388 0.0143285 0.0131932 0.012552 0.0127724 0.0144189 0.0173927 0.020893 0.0244821 0.0265668 0.0267223 0.0254831 0.0239031 0.0221485 0.0203346 0.0180419 0.0180369 0.0197867 0.021439 0.0246311 0.0239527 0.0211211 0.0204304 0.0199321 0.0198029 0.0195743 0.0194552 0.0191946 0.0187795 0.0182857 0.0176503 0.0170163 0.0162409 0.0155376 0.0148409 0.0145171 0.0147511 0.015883 0.017939 0.0202146 0.0224937 0.0238224 0.0240263 0.0234492 0.0225086 0.0218249 0.0206854 0.0215516 0.0209647 0.0181531 0.0162316 0.0155551 0.017499 0.0185706 0.0189995 0.0193414 0.0195188 0.0196315 0.019558 0.019344 0.0189819 0.0185525 0.0180167 0.017498 0.0169132 0.0164428 0.0160317 0.0159116 0.0161584 0.0169076 0.0182064 0.0196095 0.0210192 0.0218802 0.0221698 0.0220048 0.0217179 0.0216054 0.0223353 0.0238685 0.0216634 0.0178701 0.0156398 0.00980924 0.0101491 0.0159499 0.0180092 0.0190633 0.0194505 0.0198084 0.0197619 0.0195692 0.0192445 0.0188686 0.0184208 0.0179974 0.017548 0.0172047 0.0169297 0.0168657 0.017044 0.0175125 0.0183084 0.0191468 0.0199957 0.0205286 0.0207178 0.0206148 0.0202276 0.0198706 0.0190583 0.0200812 0.019454 0.0164564 0.014868 0.00793517 0.00799123 0.0148911 0.0173368 0.0189654 0.019538 0.0200983 0.0199608 0.0197496 0.0194483 0.019121 0.0187488 0.0184013 0.0180474 0.0177801 0.0175768 0.017526 0.0176403 0.0179268 0.0184064 0.0189102 0.019418 0.0197607 0.0199062 0.0199381 0.0197951 0.0196554 0.0193762 0.0198047 0.0185617 0.0176457 0.0185955 0.0198783 0.0210657 0.0196765 0.0194079 0.0199113 0.0200345 0.0204864 0.0202487 0.0199793 0.0196708 0.0193636 0.0190395 0.0187443 0.0184558 0.0182339 0.0180647 0.0180008 0.0180483 0.0182031 0.0184756 0.0187614 0.0190504 0.0192463 0.0193346 0.0193822 0.0193413 0.0193419 0.018913 0.0182885 0.0175305 0.0191276 0.0219142 0.0230597 0.0226611 0.0210778 0.0206946 0.0206937 0.0206364 0.020618 0.0203413 0.0200684 0.0197823 0.0195107 0.0192346 0.0189844 0.0187444 0.0185539 0.0184044 0.0183292 0.0183315 0.0184051 0.0185552 0.0187185 0.0188892 0.0190127 0.0190923 0.0191608 0.0192638 0.0193531 0.0193413 0.018432 0.0191208 0.0195671 0.0191034 0.0218453 0.0227826 0.0215065 0.021286 0.0210577 0.0208628 0.0207689 0.020451 0.0201632 0.0198842 0.0196313 0.0193843 0.0191622 0.018952 0.0187794 0.0186389 0.0185527 0.0185234 0.0185469 0.0186272 0.0187225 0.018834 0.0189216 0.0190074 0.0190938 0.0192844 0.0194995 0.0199544 0.0197298 0.0209067 0.0216085 0.0208339 0.0221515 0.0225649 0.0219301 0.0217232 0.0213983 0.0210922 0.020719 0.0204166 0.0201541 0.0199052 0.0196816 0.0194636 0.0192648 0.0190743 0.0189123 0.0187753 0.018683 0.0186383 0.0186412 0.0186968 0.0187739 0.0188779 0.0189721 0.0190843 0.0191898 0.0194008 0.0196021 0.0200828 0.020191 0.0210406 0.021857 0.0218168 0.0224359 0.0224212 0.022018 0.0217474 0.0213841 0.0210417 0.0206415 0.0203665 0.0201301 0.0199058 0.0197027 0.0195021 0.0193149 0.0191312 0.0189705 0.01883 0.0187326 0.0186818 0.0186835 0.018745 0.0188369 0.0189685 0.0190974 0.0192519 0.0193956 0.0196274 0.0198433 0.0202835 0.0205347 0.021172 0.0217189 0.0217711 0.0221104 0.022067 0.0218459 0.0215797 0.0212581 0.0209349 
        </DataArray>
        <DataArray Name="vy" NumberOfComponents="1" type="Float32" format="ascii">
0.0116453 0.011627 0.0116387 0.0116791 0.0117398 0.0118175 0.0119021 0.0119874 0.0120543 0.0121037 0.0121063 0.0120908 0.0120254 0.0119686 0.0119047 0.0118787 0.0118987 0.0119803 0.012132 0.0123615 0.0126333 0.0129736 0.0131869 0.0135161 0.0133357 0.013251 0.0129968 0.0125975 0.0122911 0.0120182 0.0118293 0.0117112 0.0118553 0.0118202 0.0118209 0.0118584 0.011921 0.0120039 0.012089 0.0121699 0.0122135 0.0122305 0.0121689 0.012091 0.0119358 0.0118162 0.0116945 0.0116436 0.0116576 0.0117443 0.0118956 0.0121154 0.0123669 0.0126856 0.012917 0.0132104 0.0132028 0.0131912 0.0130139 0.0127486 0.0124934 0.0122604 0.0120711 0.0119414 0.0120369 0.0119884 0.0119859 0.0120302 0.0121066 0.0122062 0.012303 0.0123873 0.0124109 0.0123909 0.0122448 0.0120775 0.0117839 0.0115691 0.0113596 0.011277 0.0113055 0.01143 0.0116254 0.0118726 0.0121485 0.0124733 0.0127517 0.013041 0.013156 0.013203 0.0131141 0.0129373 0.0127169 0.012498 0.0122949 0.0121443 0.0121812 0.0121286 0.012136 0.0122012 0.0123051 0.0124318 0.0125465 0.0126334 0.0126278 0.0125522 0.0122834 0.0119885 0.0114957 0.0111493 0.010836 0.0107409 0.0108313 0.0110467 0.0113352 0.0116469 0.0119846 0.0123519 0.0127158 0.0130443 0.0132884 0.0133733 0.0133469 0.0131863 0.0129607 0.0127177 0.012484 0.0123058 0.0122904 0.0122424 0.012274 0.0123776 0.0125294 0.0127029 0.0128585 0.0129689 0.0129579 0.0128305 0.0124101 0.0119107 0.0110769 0.0105061 0.0100001 0.00987186 0.0101061 0.0105244 0.0110179 0.0114609 0.0119078 0.0123478 0.0128255 0.0132043 0.0135936 0.0136675 0.0136839 0.0134899 0.0132254 0.012927 0.0126445 0.0124308 0.0123638 0.012333 0.0124057 0.0125656 0.0127833 0.0130173 0.0132294 0.0133758 0.0133743 0.0131766 0.0125269 0.0117183 0.0103506 0.00940597 0.00867501 0.00860924 0.00918125 0.00999462 0.0108192 0.0114471 0.0120174 0.0125394 0.0131456 0.0135833 0.0141268 0.0141508 0.0141645 0.0138695 0.0135115 0.0131198 0.0127686 0.0125147 0.0123839 0.0123825 0.0125131 0.0127498 0.0130615 0.0133953 0.0137382 0.0140304 0.0141956 0.0140025 0.0131248 0.0116927 0.0093781 0.00778426 0.00649725 0.00634349 0.00755709 0.00922038 0.0107455 0.0116981 0.0124039 0.0129856 0.0136949 0.0141625 0.0149528 0.0147429 0.0147317 0.0142771 0.0137794 0.0132689 0.0128339 0.0125392 0.0123183 0.0123705 0.0125817 0.0129171 0.0133535 0.0138358 0.0144143 0.0149943 0.0154786 0.0152231 0.0138231 0.0115004 0.00768785 0.00494089 0.00304787 0.00306009 0.00547817 0.00859809 0.0112606 0.0126652 0.0134207 0.0139518 0.0146575 0.015112 0.0161052 0.0155819 0.015402 0.0146658 0.013934 0.0132794 0.0127653 0.012453 0.012164 0.0122728 0.0125657 0.0130084 0.0136032 0.014334 0.0153589 0.0165506 0.0176497 0.0172322 0.0152489 0.0109539 0.00607107 0.00257073 -0.00109713 -0.00247123 0.00119106 0.00709442 0.0121173 0.0144839 0.0152515 0.0155737 0.0159568 0.0163127 0.0178712 0.0162234 0.0158591 0.0149321 0.0139365 0.0131712 0.0125851 0.0122719 0.0118475 0.0120405 0.01243 0.0129955 0.0137961 0.0148833 0.0165507 0.0184545 0.0198542 0.0178693 0.014005 0.00922256 0.00377617 -0.000722596 -0.00459429 -0.00607212 -0.00197931 0.00521253 0.0132238 0.0172034 0.0181542 0.0181565 0.0179108 0.0181611 0.0200223 0.0171734 0.016199 0.0148435 0.013499 0.0126757 0.0121118 0.0118752 0.0114646 0.011686 0.012109 0.0127362 0.0136755 0.0150629 0.0171602 0.0193341 0.0194541 0.0153673 0.0125955 0.0075347 0.00141636 -0.00277804 -0.00516716 -0.00556353 -0.00258209 0.0041305 0.0134322 0.0196572 0.0214606 0.0214807 0.0195062 0.0202246 0.0239846 0.0163467 0.0146049 0.0144023 0.0128892 0.0121895 0.0116435 0.0114598 0.0109377 0.0111723 0.0115887 0.0122116 0.0131834 0.0146625 0.0168188 0.0185899 0.0174442 0.0138627 0.0115211 0.0063536 0.0017303 -0.000401756 -0.0021674 -0.00331059 -0.00258602 0.00244256 0.0118047 0.019167 0.0232126 0.0238824 0.0206636 0.0223113 0.0263668 0.0169032 0.0147042 0.0131882 0.0115593 0.0111989 0.010914 0.0108642 0.010471 0.0105712 0.0108423 0.0112888 0.0120282 0.0131625 0.0148374 0.0159325 0.015269 0.0137685 0.0102694 0.00688953 0.00468813 0.00368147 0.00264185 0.00161744 0.00124519 0.00382984 0.0113626 0.0166604 0.0227253 0.0247095 0.0205279 0.0195948 0.0210675 0.0148909 0.0153428 0.0153492 0.0129751 0.0114485 0.0108074 0.0105226 0.0100695 0.00995217 0.00999195 0.0101545 0.01047 0.0109768 0.0118017 0.0125837 0.0133407 0.012955 0.0115275 0.00981437 0.00864069 0.00799852 0.00718956 0.00623517 0.00546752 0.00623829 0.0104687 0.0139476 0.0194566 0.0198926 0.014942 0.0187142 0.020563 0.0143315 0.0162416 0.0181094 0.0150844 0.0122742 0.0110307 0.0103597 0.00955491 0.00926123 0.00904659 0.00885834 0.00860932 0.00828747 0.00800785 0.00868121 0.0117468 0.0130363 0.013989 0.0136856 0.012898 0.012201 0.0114901 0.0106337 0.00979537 0.00901255 0.0103066 0.0119428 0.014872 0.0136793 0.0119171 0.021912 0.0246157 0.0153984 0.0162975 0.0154646 0.013547 0.0115203 0.0105875 0.00994105 0.0092304 0.00873537 0.00826727 0.00777026 0.00705154 0.00608406 0.00496384 0.00587093 0.0104587 0.012717 0.0155584 0.017152 0.0169039 0.016295 0.0157349 0.0151396 0.0144209 0.0130055 0.0122592 0.0100632 0.0105691 0.0112296 0.0123593 0.0191109 0.022234 0.0146829 0.0150291 0.0138012 0.0126507 0.0113125 0.0104909 0.0097854 0.00902956 0.00837302 0.00772373 0.0070367 0.00607834 0.00482011 0.00331135 0.00433563 0.009089 0.010901 0.0155952 0.0200238 0.0207867 0.0204717 0.0200212 0.0193747 0.0181147 0.0151183 0.0125933 0.00799801 0.00727889 0.0090012 0.0109622 0.0154985 0.0179723 0.0156467 0.0151517 0.0140186 0.0126556 0.0114975 0.0105603 0.0097465 0.0090102 0.00822346 0.00744319 0.00664258 0.0055931 0.00422537 0.00252427 0.00276445 0.00710131 0.0103911 0.0141751 0.0210936 0.0241557 0.0248037 0.0246742 0.0234143 0.0199419 0.0132481 0.0120788 0.007648 0.00624073 0.00803661 0.0105357 0.0137942 0.0153225 0.0148113 0.0142936 0.0136937 0.0126667 0.0117388 0.0107603 0.00986313 0.00913624 0.00827982 0.00746556 0.00668683 0.00577281 0.00462946 0.00320456 0.0026223 0.00549988 0.0101516 0.0120483 0.020796 0.0262044 0.0283842 0.0287275 0.0264629 0.0205798 0.0103834 0.00919284 0.00595876 0.00540241 0.00755206 0.0100866 0.0126141 0.0139658 0.0142546 0.0141374 0.0140447 0.0131245 0.0122113 0.0111049 0.0100972 0.00937006 0.00848062 0.00767441 0.0069519 0.00620307 0.00535055 0.00428871 0.00346994 0.00456251 0.00798371 0.0108926 0.019171 0.0253873 0.0297733 0.0313423 0.0280332 0.0214991 0.0103675 0.00646272 0.00451709 0.00549993 0.00790739 0.0101096 0.0119261 0.0131094 0.0138493 0.0140332 0.0144259 0.013612 0.0127055 0.0114988 0.010402 0.00965339 0.00877734 0.00804083 0.0074332 0.00689619 0.00638171 0.00581703 0.00532876 0.00556448 0.00751915 0.0106593 0.0167241 0.0224204 0.0270533 0.0290746 0.0254919 0.0192914 0.0105998 0.00731412 0.00654376 0.00754782 0.00932127 0.0108728 0.0114619 0.0124801 0.0131725 0.0138595 0.015203 0.0144168 0.0133361 0.0119528 0.010731 0.00991847 0.00909404 0.00845386 0.00796492 0.00760637 0.00735083 0.00721698 0.00721153 0.00770088 0.00911496 0.0114745 0.0154821 0.0196997 0.0225472 0.0236282 0.0210256 0.0164411 0.0114474 0.00936612 0.00893736 0.00957846 0.0108172 0.0115419 0.0109965 0.011672 0.0126984 0.0138681 0.0159435 0.0150747 0.0137688 0.012275 0.0109821 0.0101333 0.0093835 0.00886443 0.00850138 0.00828489 0.00817734 0.0082456 0.00843414 0.00900262 0.0100234 0.011796 0.0142504 0.0170701 0.0187892 0.0193004 0.0177374 0.0150869 0.0122946 0.0110527 0.0109329 0.0114389 0.0131397 0.0137754 0.00939423 0.00897767 0.00940545 0.0131264 0.0185831 0.0171918 0.0145408 0.0126594 0.0111774 0.0102807 0.00963397 0.00924144 0.00899527 0.00889219 0.00888636 0.00906314 0.00934791 0.00995046 0.010755 0.0120284 0.0134921 0.0151735 0.016125 0.0164082 0.0155369 0.0140922 0.0126864 0.0121123 0.0122815 0.0131605 0.0148822 0.0137048 0.00921572 0.00909288 0.00808827 0.011343 0.0192315 0.018276 0.0148943 0.0127973 0.0112456 0.0102299 0.00977576 0.00954165 0.00941984 0.00941014 0.00946409 0.00966376 0.00993106 0.0104407 0.0110331 0.0119463 0.0128525 0.0139075 0.0144664 0.0146517 0.0142045 0.0134367 0.0127184 0.0124609 0.0125745 0.0129121 0.0137135 0.0133388 0.0129191 0.0131277 0.0117647 0.0121894 0.016145 0.015571 0.0138267 0.0122318 0.0109753 0.0101695 0.00991343 0.00981647 0.00979331 0.00984997 0.0099452 0.0101494 0.010394 0.0108147 0.0112592 0.0119075 0.0124817 0.0131309 0.0134553 0.0135698 0.013333 0.0129354 0.0126371 0.012595 0.0128325 0.0127454 0.0131507 0.013577 0.0153488 0.0153274 0.0160216 0.0179304 0.011726 0.0103484 0.0117467 0.0113407 0.0106258 0.0100699 0.0100281 0.0100616 0.0101228 0.0102259 0.0103429 0.0105313 0.0107374 0.0110616 0.011385 0.0118379 0.012216 0.0126349 0.0128423 0.0129299 0.0128275 0.0126618 0.0126153 0.0128147 0.0132664 0.0134972 0.0133427 0.0130049 0.0169962 0.0174706 0.018652 0.0184852 0.00959086 0.00779186 0.0101759 0.0103821 0.0102164 0.0101935 0.0102368 0.010326 0.0104265 0.010548 0.0106724 0.0108426 0.0110196 0.0112725 0.0115147 0.0118333 0.0120871 0.0123569 0.0124895 0.0125541 0.012512 0.0124643 0.0125107 0.0127893 0.0132293 0.0136195 0.0132042 0.0142324 0.0175661 0.0149853 0.0161353 0.0163886 0.0117234 0.00994362 0.0105806 0.0103831 0.0102533 0.0104725 0.0105341 0.010631 0.010733 0.0108477 0.0109628 0.0111075 0.0112544 0.0114475 0.0116281 0.01185 0.0120237 0.0122001 0.0122902 0.0123424 0.0123401 0.0123594 0.0124621 0.0127724 0.0132377 0.0138808 0.013941 0.0147373 0.0166337 0.0132011 0.01406 0.0157665 0.0121147 0.0110661 0.010876 0.0106186 0.0104842 0.0107208 0.0107973 0.0108943 0.0109934 0.0110992 0.0112055 0.0113301 0.0114555 0.011606 0.0117442 0.0118987 0.0120173 0.0121276 0.0121843 0.0122191 0.0122278 0.012268 0.0123722 0.0126371 0.0130257 0.013602 0.013993 0.014565 0.0158644 0.0145423 0.0140188 0.0137312 0.0118844 0.011354 0.0109783 0.0107716 0.0106947 0.0110923 0.0111262 0.0111853 0.0112569 0.0113401 0.0114302 0.0115342 0.0116402 0.0117561 0.0118605 0.0119614 0.0120357 0.012092 0.0121183 0.0121311 0.0121398 0.0121829 0.0122836 0.0125004 0.0128184 0.013258 0.0136754 0.0139976 0.0146919 0.0138389 0.0135916 0.0133981 0.0123357 0.0118632 0.0114375 0.0112167 0.0111076 0.0113626 0.0113773 0.0114161 0.0114733 0.0115444 0.0116266 0.0117182 0.0118115 0.0119007 0.0119771 0.0120304 0.0120632 0.0120653 0.0120561 0.0120373 0.0120327 0.0120647 0.0121523 0.0123261 0.0125891 0.0129255 0.0133233 0.013585 0.0140616 0.0137007 0.0134833 0.0131223 0.012417 0.0120254 0.0116802 0.0114912 0.0113925 
        </DataArray>
        <DataArray Name="vz" NumberOfComponents="1" type="Float32" format="ascii">
0 0 0 0 0 0 0 0 0 0 0 0 0 0 0 0 0 0 0 0 0 0 0 0 0 0 0 0 0 0 0 0 0 0 0 0 0 0 0 0 0 0 0 0 0 0 0 0 0 0 0 0 0 0 0 0 0 0 0 0 0 0 0 0 0 0 0 0 0 0 0 0 0 0 0 0 0 0 0 0 0 0 0 0 0 0 0 0 0 0 0 0 0 0 0 0 0 0 0 0 0 0 0 0 0 0 0 0 0 0 0 0 0 0 0 0 0 0 0 0 0 0 0 0 0 0 0 0 0 0 0 0 0 0 0 0 0 0 0 0 0 0 0 0 0 0 0 0 0 0 0 0 0 0 0 0 0 0 0 0 0 0 0 0 0 0 0 0 0 0 0 0 0 0 0 0 0 0 0 0 0 0 0 0 0 0 0 0 0 0 0 0 0 0 0 0 0 0 0 0 0 0 0 0 0 0 0 0 0 0 0 0 0 0 0 0 0 0 0 0 0 0 0 0 0 0 0 0 0 0 0 0 0 0 0 0 0 0 0 0 0 0 0 0 0 0 0 0 0 0 0 0 0 0 0 0 0 0 0 0 0 0 0 0 0 0 0 0 0 0 0 0 0 0 0 0 0 0 0 0 0 0 0 0 0 0 0 0 0 0 0 0 0 0 0 0 0 0 0 0 0 0 0 0 0 0 0 0 0 0 0 0 0 0 0 0 0 0 0 0 0 0 0 0 0 0 0 0 0 0 0 0 0 0 0 0 0 0 0 0 0 0 0 0 0 0 0 0 0 0 0 0 0 0 0 0 0 0 0 0 0 0 0 0 0 0 0 0 0 0 0 0 0 0 0 0 0 0 0 0 0 0 0 0 0 0 0 0 0 0 0 0 0 0 0 0 0 0 0 0 0 0 0 0 0 0 0 0 0 0 0 0 0 0 0 0 0 0 0 0 0 0 0 0 0 0 0 0 0 0 0 0 0 0 0 0 0 0 0 0 0 0 0 0 0 0 0 0 0 0 0 0 0 0 0 0 0 0 0 0 0 0 0 0 0 0 0 0 0 0 0 0 0 0 0 0 0 0 0 0 0 0 0 0 0 0 0 0 0 0 0 0 0 0 0 0 0 0 0 0 0 0 0 0 0 0 0 0 0 0 0 0 0 0 0 0 0 0 0 0 0 0 0 0 0 0 0 0 0 0 0 0 0 0 0 0 0 0 0 0 0 0 0 0 0 0 0 0 0 0 0 0 0 0 0 0 0 0 0 0 0 0 0 0 0 0 0 0 0 0 0 0 0 0 0 0 0 0 0 0 0 0 0 0 0 0 0 0 0 0 0 0 0 0 0 0 0 0 0 0 0 0 0 0 0 0 0 0 0 0 0 0 0 0 0 0 0 0 0 0 0 0 0 0 0 0 0 0 0 0 0 0 0 0 0 0 0 0 0 0 0 0 0 0 0 0 0 0 0 0 0 0 0 0 0 0 0 0 0 0 0 0 0 0 0 0 0 0 0 0 0 0 0 0 0 0 0 0 0 0 0 0 0 0 0 0 0 0 0 0 0 0 0 0 0 0 0 0 0 0 0 0 0 0 0 0 0 0 0 0 0 0 0 0 0 0 0 0 0 0 0 0 0 0 0 0 0 0 0 0 0 0 0 0 0 0 0 0 0 0 0 0 0 0 0 0 0 0 0 0 0 0 0 0 0 0 0 0 0 0 0 0 0 0 0 0 0 0 0 0 0 0 0 0 0 0 0 0 0 0 0 0 0 0 0 0 0 0 0 0 0 0 0 0 0 0 0 0 0 0 0 0 0 0 0 0 0 0 0 0 0 0 0 0 0 0 0 0 0 0 0 0 0 0 0 0 0 0 0 0 0 0 0 0 0 0 0 0 0 0 0 0 0 0 0 0 0 0 0 0 0 0 0 0 0 0 0 0 0 0 0 0 0 0 0 0 0 0 0 0 0 0 0 0 0 0 0 0 0 0 0 0 0 0 0 0 0 0 0 0 0 0 0 0 0 0 0 0 0 0 0 0 0 0 0 0 0 0 0 0 0 0 0 0 0 0 0 0 0 0 0 0 0 0 0 0 0 0 0 0 0 0 0 0 0 0 0 0 0 0 0 0 0 0 0 0 0 0 0 0 0 0 0 0 0 0 0 0 0 0 0 0 0 0 0 0 0 0 0 0 0 0 0 0 0 0 0 0 0 0 0 0 0 0 0 0 0 0 0 0 0 0 0 0 0 0 0 0 0 0 0 0 0 0 0 0 0 0 0 0 0 0 0 0 0 0 0 0 0 0 0 0 0 0 
        </DataArray>
        <DataArray Name="p" NumberOfComponents="1" type="Float32" format="ascii">