<?xml version="1.0"?>
<VTKFile type="StructuredGrid" version="0.1" byte_order="LittleEndian">
  <StructuredGrid WholeExtent="0 32 0 32 0 1">
    <Piece Extent="0 32 0 32 0 1">
      <PointData>
      </PointData>
      <CellData>
        <DataArray Name="vx" NumberOfComponents="1" type="Float32" format="ascii">
0.020646 0.0204294 0.0202357 0.0200498 0.0198754 0.0196952 0.0195196 0.019336 0.0191667 0.0190059 0.0188833 0.0188037 0.0187813 0.0188288 0.018918 0.0190648 0.0192162 0.019402 0.019572 0.0198075 0.0200109 0.0203426 0.0205619 0.0209207 0.0212427 0.0212997 0.0215354 0.0215897 0.0215177 0.0213493 0.0211202 0.0208788 0.0204672 0.0202937 0.0201352 0.0199746 0.0198152 0.0196396 0.019461 0.0192652 0.0190829 0.0189051 0.0187767 0.0187029 0.0187114 0.0188177 0.018982 0.019223 0.0194611 0.0197195 0.0199415 0.0201936 0.0204014 0.0206767 0.0208649 0.0211019 0.0212818 0.0212927 0.0213745 0.0213226 0.0212156 0.0210422 0.020849 0.0206505 0.0202774 0.02014 0.0200098 0.0198666 0.0197127 0.0195298 0.0193361 0.0191145 0.0189086 0.0187039 0.0185681 0.0185072 0.0185701 0.0187769 0.019066 0.0194541 0.0198156 0.0201661 0.0204411 0.0207043 0.0208998 0.0211136 0.021235 0.0213528 0.0213974 0.0213229 0.0212679 0.0211115 0.0209538 0.0207621 0.0205881 0.0204212 0.0200888 0.0199827 0.019875 0.0197425 0.0195864 0.019387 0.019168 0.0189066 0.0186589 0.0184003 0.0182296 0.0181619 0.0182946 0.0186488 0.0191311 0.0197598 0.0203173 0.0207992 0.0211298 0.0213888 0.0215472 0.0216867 0.0217091 0.0217 0.0215836 0.0213733 0.0211841 0.0209199 0.0207115 0.0204972 0.0203378 0.020198 0.0198943 0.0198179 0.0197288 0.0196011 0.0194339 0.019207 0.0189484 0.018625 0.0183017 0.0179398 0.0176875 0.0175849 0.0178131 0.0184102 0.0192231 0.0202372 0.0210806 0.0217188 0.0220747 0.0222772 0.0223422 0.0223696 0.0222502 0.0220931 0.0217919 0.0214173 0.0210949 0.0207141 0.0204586 0.020223 0.0200809 0.0199694 0.0196978 0.0196595 0.0195958 0.0194804 0.019309 0.0190604 0.0187565 0.0183417 0.0178615 0.0172764 0.0167879 0.0165379 0.0168825 0.0178089 0.0191274 0.0208212 0.0222014 0.0231038 0.0234443 0.0234734 0.0233244 0.0231509 0.0228097 0.022477 0.0219318 0.0213554 0.020926 0.0204234 0.020147 0.0199052 0.0197985 0.0197286 0.019511 0.0195254 0.0194972 0.0194038 0.0192334 0.0189611 0.018581 0.0179952 0.0172043 0.0162052 0.0153337 0.0148818 0.0154065 0.0168605 0.0189833 0.0216877 0.0238441 0.0251069 0.0253607 0.0250172 0.0244581 0.0239358 0.0232701 0.0227073 0.0218578 0.0210573 0.0205416 0.0199345 0.0196964 0.0194996 0.0194739 0.0194772 0.0193467 0.0194394 0.0194748 0.0194394 0.0193075 0.0190436 0.018576 0.0177533 0.0164783 0.0150174 0.0137236 0.0132827 0.0142401 0.0158086 0.0183624 0.0222099 0.0256391 0.0277049 0.0279534 0.0270345 0.02579 0.0246673 0.0234877 0.0226796 0.0213536 0.0203034 0.0199116 0.0192385 0.0191234 0.0190209 0.0191167 0.0192245 0.0192601 0.0194524 0.0195744 0.0196293 0.0195667 0.0193394 0.0187798 0.0177224 0.0160673 0.0146765 0.0140041 0.0145884 0.0160909 0.0175176 0.0201078 0.0236616 0.0267688 0.0294016 0.0302229 0.0288871 0.0269308 0.0250346 0.0232598 0.0221318 0.0202039 0.0189712 0.0188315 0.0182009 0.0183673 0.0184777 0.0187691 0.0190258 0.0192453 0.0195545 0.0197985 0.0200033 0.0200977 0.0200348 0.0196116 0.0187903 0.0177066 0.0185935 0.0195872 0.0201256 0.0217524 0.0236236 0.025695 0.0270227 0.0275491 0.028796 0.0301565 0.0293441 0.0272406 0.0245842 0.0222207 0.0210136 0.0179651 0.016705 0.0177669 0.0173262 0.0177788 0.0180889 0.01852 0.0189092 0.0194139 0.0198238 0.0201966 0.0205946 0.0209337 0.0212435 0.0213549 0.0215429 0.0222465 0.0257078 0.0269794 0.0256688 0.0265463 0.0273284 0.0270473 0.0256297 0.0256492 0.0253364 0.0248804 0.0257862 0.0251069 0.0225239 0.0207322 0.0194649 0.0160378 0.015851 0.0170272 0.016512 0.0173847 0.0179679 0.0185231 0.0190102 0.0196115 0.0201006 0.0206048 0.0212136 0.0218672 0.0226324 0.0235775 0.0246127 0.0271154 0.0279483 0.0280837 0.0294942 0.0291364 0.0276175 0.0247923 0.0215655 0.0195781 0.0197655 0.0190611 0.0192448 0.020918 0.0190297 0.0192319 0.0193291 0.0184681 0.0201621 0.020364 0.019199 0.0183867 0.0185405 0.0187774 0.019217 0.0200039 0.0204853 0.0210632 0.0218525 0.022797 0.0241266 0.0258425 0.0281453 0.030706 0.0304137 0.030562 0.031577 0.0296022 0.0266113 0.0229598 0.0189106 0.0154035 0.0134669 0.0140658 0.0148446 0.0156945 0.0153987 0.0173264 0.0190074 0.020487 0.0218651 0.0229114 0.0229858 0.0203877 0.0198653 0.01953 0.0197321 0.0201235 0.0206267 0.0212537 0.0221391 0.0232373 0.0248944 0.0269033 0.0299191 0.0305912 0.0308568 0.0324385 0.0312593 0.028461 0.0251044 0.0215527 0.0177138 0.0141151 0.0109189 0.0108486 0.0117478 0.0137479 0.0167407 0.022217 0.0226737 0.0189355 0.0179708 0.0166865 0.0178572 0.0189478 0.0193343 0.019504 0.0198025 0.0202964 0.020732 0.0213195 0.0221793 0.0232812 0.0249751 0.0270891 0.0301528 0.0308444 0.0312132 0.0323803 0.0304346 0.0272735 0.0238314 0.0202934 0.0165577 0.0127102 0.00909683 0.00725333 0.00721047 0.00938873 0.0137474 0.0151234 0.0137732 0.0133063 0.0167079 0.0184529 0.0180718 0.019244 0.0196479 0.0198307 0.0200375 0.0203391 0.0206227 0.0210694 0.0217431 0.0226215 0.023933 0.0256019 0.0279851 0.0292774 0.0299014 0.0307932 0.029305 0.026177 0.0227798 0.0191393 0.0155058 0.0117212 0.00886766 0.00754907 0.00761758 0.00956697 0.0133484 0.0138297 0.016269 0.0213987 0.019648 0.018185 0.0197569 0.0200802 0.020281 0.0202202 0.0202225 0.0202989 0.020433 0.020709 0.0211298 0.0216845 0.0223988 0.0233555 0.0245407 0.0263221 0.0268122 0.0276972 0.0279669 0.0253547 0.0220568 0.0180247 0.0142898 0.0108277 0.0102624 0.0105204 0.0100681 0.0114504 0.0138235 0.0145993 0.0163679 0.0213295 0.0211955 0.0198279 0.0208763 0.0207818 0.0206653 0.0204386 0.0203017 0.0201782 0.0201425 0.0202214 0.0203592 0.0205802 0.0206876 0.0210419 0.0209956 0.0236568 0.0236502 0.0233368 0.0253351 0.0238114 0.021257 0.0172578 0.0138936 0.0113901 0.0130529 0.0148571 0.0146077 0.0157457 0.0168677 0.0173287 0.0181718 0.0209918 0.0217415 0.0215788 0.0218535 0.0214406 0.0210238 0.0206179 0.0203241 0.0200166 0.0198617 0.0197715 0.0196675 0.0195633 0.0192201 0.0188467 0.0180659 0.0193115 0.0209385 0.0210675 0.0217371 0.0221367 0.0211659 0.0178552 0.0151137 0.0138147 0.0131552 0.0146428 0.0172307 0.0184575 0.0191209 0.0194039 0.0202009 0.0219687 0.0225336 0.022563 0.022323 0.0216911 0.0211072 0.0206076 0.0202482 0.0198197 0.0195973 0.0193916 0.0191249 0.0188078 0.0182445 0.0174499 0.0163333 0.0157325 0.0174955 0.0182934 0.0178929 0.019761 0.0214872 0.0208094 0.0207497 0.0218311 0.0201466 0.0201659 0.0220794 0.0216093 0.0211697 0.0206925 0.0211575 0.0224869 0.0230887 0.0233217 0.0226791 0.0217545 0.0210423 0.0204674 0.0200923 0.0196548 0.0194179 0.0191456 0.0187714 0.0183119 0.0176086 0.0166364 0.0152493 0.0136453 0.013413 0.0129824 0.0137279 0.0157373 0.0175316 0.0209076 0.0230426 0.025506 0.0263793 0.0253802 0.0247036 0.0227639 0.0215146 0.0205253 0.0210176 0.0225979 0.023511 0.0237965 0.0226855 0.0214901 0.0207698 0.0202148 0.0199092 0.0194705 0.0192954 0.0190381 0.0186518 0.0181742 0.0175026 0.0166459 0.015469 0.0139452 0.0127867 0.0117927 0.0120821 0.0136331 0.0159066 0.0206301 0.0244256 0.0269909 0.0276703 0.026061 0.0244746 0.0223845 0.0208386 0.0189373 0.0195085 0.0222044 0.0244391 0.0254374 0.0232396 0.021076 0.0202477 0.0197662 0.0196164 0.0194109 0.0192951 0.0190633 0.0186864 0.0182174 0.0175939 0.0168761 0.0159798 0.0149159 0.0140056 0.0132864 0.0134028 0.0147353 0.0169415 0.0205113 0.0236572 0.0254763 0.0256828 0.0244477 0.0229944 0.0212388 0.0191005 0.0169892 0.0177943 0.0194445 0.0216374 0.0239869 0.0223947 0.0202603 0.0196971 0.0194151 0.0194471 0.0193164 0.0193288 0.0191789 0.0188581 0.0184461 0.0179089 0.0173324 0.0166667 0.0159701 0.0153644 0.0149633 0.0151013 0.0160555 0.0176802 0.0199674 0.0219893 0.0231655 0.0233273 0.0226626 0.0216279 0.0207958 0.0191408 0.019475 0.0189533 0.0158847 0.0135573 0.013417 0.0151988 0.016334 0.0178901 0.0185936 0.0190755 0.0194564 0.0195073 0.0193837 0.0190917 0.0187234 0.0182576 0.017783 0.0172709 0.0168032 0.0164292 0.0162411 0.0163895 0.0170238 0.0180773 0.0194475 0.0207004 0.0214707 0.0217047 0.0215003 0.0211623 0.0210034 0.021134 0.0224125 0.0206455 0.0162976 0.0129277 0.00586442 0.00503634 0.0120232 0.0163858 0.0182214 0.0190642 0.0197232 0.0197632 0.0196436 0.0193734 0.0190457 0.018647 0.018254 0.0178463 0.0175004 0.0172327 0.0171178 0.0172205 0.0176061 0.0182498 0.0190413 0.0197825 0.020255 0.0203979 0.0202792 0.019867 0.0195323 0.0186209 0.0194442 0.0189125 0.0158987 0.0141605 0.008056 0.00709677 0.0128803 0.0164791 0.0184872 0.0193037 0.0204581 0.0202051 0.0199537 0.0196445 0.019327 0.018975 0.0186422 0.0183092 0.018037 0.0178291 0.0177386 0.0177934 0.0180167 0.0183987 0.0188567 0.0193052 0.0196212 0.0197965 0.0198741 0.019972 0.0200434 0.0207896 0.0215998 0.0198257 0.0202234 0.0221849 0.026713 0.0294159 0.0244826 0.021793 0.0210743 0.0206521 0.0207248 0.020451 0.020174 0.0198687 0.0195706 0.0192592 0.018972 0.0186917 0.018462 0.0182803 0.0181833 0.0181839 0.0182881 0.0184938 0.0187389 0.0189885 0.0191687 0.0192861 0.0193738 0.0195273 0.0196365 0.0201087 0.0197859 0.0182527 0.0201249 0.0231284 0.0238509 0.024724 0.0233518 0.0215078 0.0212312 0.0209356 0.0209429 0.02061 0.0203042 0.020004 0.0197277 0.0194534 0.0192046 0.0189652 0.0187658 0.0186017 0.0184985 0.0184624 0.0184938 0.0185941 0.0187208 0.0188631 0.0189739 0.0190774 0.019174 0.0193881 0.0195034 0.0197564 0.0188656 0.0189747 0.0187806 0.0179858 0.0198291 0.0218813 0.0223582 0.0218701 0.0216112 0.0212686 0.0210158 0.0206841 0.0203828 0.0200999 0.0198454 0.0195997 0.0193778 0.0191652 0.0189832 0.0188268 0.018715 0.0186517 0.0186368 0.0186751 0.0187352 0.0188201 0.0188933 0.0189896 0.0190933 0.0193423 0.0195604 0.0200621 0.0197512 0.0205229 0.0204713 0.0191438 0.0207801 0.0222512 0.0222409 0.0219804 0.0216951 0.0213608 0.0209411 0.0206364 0.0203651 0.0201148 0.019891 0.0196748 0.019477 0.0192844 0.0191146 0.0189628 0.0188469 0.0187704 0.0187358 0.01875 0.0187885 0.0188607 0.0189314 0.0190369 0.0191424 0.0193713 0.019571 0.0200286 0.0200704 0.0207103 0.0212059 0.0209024 0.0215788 0.022043 0.0220402 0.0218768 0.0215902 0.0212699 0.0208241 0.0205601 0.0203251 0.0201061 0.0199077 0.0197121 0.0195288 0.019345 0.0191787 0.0190247 0.0189043 0.0188215 0.0187834 0.0188001 0.0188479 0.0189407 0.0190386 0.019176 0.0193099 0.0195423 0.0197506 0.0201603 0.0203545 0.0208498 0.0212418 0.021155 0.0215855 0.0218251 0.021803 0.0216492 0.0213914 0.0211085 
        </DataArray>
        <DataArray Name="vy" NumberOfComponents="1" type="Float32" format="ascii">
0.0116265 0.0115805 0.0115741 0.0116008 0.0116538 0.0117285 0.0118158 0.011909 0.0119898 0.0120571 0.0120828 0.0120866 0.0120421 0.0119939 0.0119296 0.0118903 0.0118838 0.0119283 0.0120337 0.0122099 0.012424 0.0127097 0.0128818 0.0131995 0.0130818 0.0131183 0.0130485 0.0127298 0.0124195 0.0121116 0.0118857 0.0117229 0.0118145 0.0117565 0.0117408 0.0117649 0.0118199 0.0119007 0.0119915 0.0120857 0.0121527 0.0121979 0.0121756 0.0121265 0.0120074 0.0118997 0.0117785 0.0117087 0.0116864 0.0117244 0.0118212 0.0119822 0.012183 0.0124521 0.0126626 0.0129424 0.012985 0.0130288 0.0129689 0.0127546 0.0125294 0.0122818 0.0120804 0.0119214 0.0119785 0.0119097 0.0118903 0.0119199 0.0119871 0.0120843 0.0121889 0.0122914 0.012349 0.0123684 0.0122853 0.012157 0.0119271 0.0117284 0.0115224 0.0114113 0.0113863 0.0114415 0.0115641 0.0117385 0.0119579 0.0122307 0.0124901 0.0127687 0.0129254 0.0130121 0.0130159 0.0128743 0.0126944 0.0124729 0.0122708 0.0121014 0.0120984 0.0120264 0.0120153 0.012063 0.012155 0.0122774 0.0124018 0.0125124 0.0125565 0.0125358 0.0123675 0.0121215 0.0117329 0.0114036 0.0110986 0.0109638 0.0109808 0.0110998 0.0112941 0.0115161 0.0117884 0.0120989 0.0124399 0.0127573 0.0130291 0.0131436 0.0131924 0.0130649 0.0128859 0.0126502 0.0124255 0.0122356 0.0121939 0.0121231 0.0121305 0.0122098 0.0123429 0.0125064 0.0126698 0.0128056 0.0128589 0.0127983 0.012535 0.0120912 0.0114523 0.0109009 0.0104133 0.0102261 0.0103445 0.0106165 0.0109745 0.0113014 0.0116687 0.0120471 0.0124959 0.0128717 0.0132747 0.0133893 0.0134835 0.0133316 0.0131228 0.0128403 0.0125713 0.0123484 0.0122503 0.0121907 0.012231 0.0123568 0.0125458 0.0127611 0.0129782 0.013154 0.0132406 0.013134 0.0127332 0.0119709 0.0109074 0.00997395 0.00926554 0.00911106 0.00951691 0.0101046 0.0107572 0.011243 0.0117206 0.0121775 0.0127422 0.0131968 0.0137323 0.0138177 0.0139245 0.0136846 0.0133917 0.0130203 0.0126835 0.0124193 0.012267 0.0122268 0.0123121 0.0124993 0.0127649 0.0130621 0.0133912 0.0136948 0.0139395 0.0138324 0.01333 0.0119585 0.010247 0.00866877 0.00741944 0.00715869 0.00806543 0.00935162 0.0106068 0.0113856 0.0119993 0.0125295 0.013189 0.0137139 0.014423 0.0143425 0.0144489 0.0140752 0.0136604 0.0131771 0.0127567 0.0124483 0.0122004 0.0122005 0.0123506 0.0126182 0.0129873 0.0134115 0.0139495 0.0145199 0.0150708 0.0149473 0.0141405 0.0117821 0.00896449 0.00631435 0.00442937 0.00424784 0.0061625 0.00853158 0.0108843 0.0121227 0.0128346 0.0133494 0.0139924 0.0146032 0.01542 0.0151032 0.015123 0.0144976 0.0138625 0.0132259 0.012713 0.0123742 0.0120587 0.0121022 0.0123163 0.0126685 0.0131626 0.0137884 0.0146819 0.0157427 0.0167125 0.0163893 0.0152703 0.0113132 0.00789052 0.00452918 0.00101324 -4.62445e-05 0.00257581 0.00705141 0.0113134 0.0134971 0.0143947 0.0148214 0.0151968 0.0158446 0.0167761 0.0156767 0.0155671 0.0147815 0.0139092 0.0131591 0.0125657 0.0122177 0.0117708 0.0118811 0.012173 0.0126246 0.0132856 0.0142039 0.0156099 0.0172272 0.0182891 0.0168553 0.0144553 0.00930338 0.00629198 0.00217926 -0.00171543 -0.00249856 0.000710269 0.0046183 0.0114488 0.0153061 0.0166906 0.0169842 0.0167951 0.0177766 0.0185806 0.0164977 0.0160982 0.0149074 0.0136637 0.0127999 0.0121769 0.0118734 0.011418 0.0115534 0.011871 0.012368 0.0131265 0.0142569 0.0158968 0.0175234 0.0169337 0.0138577 0.014571 0.00908706 0.00456316 0.000346526 -0.00226591 -0.00228218 0.000979233 0.00487242 0.0108814 0.0163078 0.0192783 0.0200015 0.0187843 0.0204624 0.0204312 0.0157609 0.0149873 0.0146204 0.0131786 0.0123788 0.0117531 0.0114932 0.0109506 0.0110949 0.011404 0.0118901 0.0126595 0.013814 0.0154147 0.016429 0.0146116 0.0119613 0.0144659 0.00919027 0.00448199 0.00176064 -3.23303e-05 -0.000872022 0.000556709 0.00526966 0.011035 0.0149973 0.019846 0.0212383 0.0190126 0.0232781 0.0222344 0.0158617 0.0159422 0.0143856 0.0122841 0.0116232 0.0111365 0.0109753 0.0105361 0.010566 0.0107579 0.0111012 0.0116859 0.0125395 0.0137708 0.0140345 0.0129521 0.0132261 0.0129349 0.00871876 0.00627993 0.00487124 0.00381217 0.00292725 0.00285739 0.00545108 0.0114058 0.0141891 0.020067 0.0222843 0.0188183 0.0211527 0.0191541 0.0130068 0.0157152 0.0165018 0.0139182 0.0119972 0.0110897 0.0106755 0.0101796 0.0100338 0.0100384 0.0101567 0.0104074 0.0108053 0.0114456 0.0118557 0.0121824 0.0126258 0.0124004 0.0104052 0.00920035 0.00841671 0.00762293 0.00667992 0.00601393 0.00661958 0.00992437 0.0133522 0.0185874 0.0191463 0.0147664 0.0201721 0.0203657 0.0145181 0.0152555 0.016674 0.0149647 0.0124416 0.0111886 0.0104975 0.00972417 0.00944161 0.00924702 0.00910076 0.00893338 0.00878552 0.00878972 0.00994256 0.0123654 0.0112633 0.0125716 0.0129171 0.012441 0.0118896 0.01126 0.0103936 0.00965456 0.00883413 0.0102001 0.0119641 0.0150408 0.0144574 0.0133849 0.0243868 0.0224155 0.01312 0.0157725 0.0147495 0.01331 0.011668 0.0107327 0.0101038 0.00946796 0.00900547 0.00858987 0.0081812 0.00761547 0.00694149 0.00629579 0.00777833 0.0116779 0.01073 0.0132714 0.0155485 0.0157016 0.0153548 0.0148633 0.0141265 0.0134162 0.0117508 0.0115363 0.0112953 0.012045 0.0127758 0.014226 0.021596 0.0197349 0.0109751 0.0148425 0.0144809 0.012908 0.0115879 0.0107071 0.0100032 0.00932151 0.00871068 0.0081287 0.00754927 0.00676054 0.00582041 0.00479585 0.00634207 0.0106095 0.00961015 0.0129831 0.0176671 0.0189367 0.0190046 0.0186609 0.0178243 0.0165319 0.0133057 0.011481 0.0101743 0.00924324 0.0102318 0.0117675 0.016384 0.0180888 0.0146918 0.0150188 0.0139334 0.0127975 0.0116851 0.0107915 0.0100039 0.0093346 0.00859667 0.00789056 0.00720072 0.00632865 0.0052585 0.0040747 0.00485814 0.0090608 0.00995458 0.0117987 0.0180429 0.0214261 0.0226196 0.0226278 0.0210256 0.0175408 0.0115987 0.0119131 0.0103714 0.00835537 0.00940851 0.0114361 0.0143911 0.0154812 0.0139739 0.0145084 0.0137938 0.0129425 0.0119831 0.0110363 0.0101542 0.00949666 0.00866871 0.0079098 0.00720879 0.00642398 0.00544905 0.00439707 0.00412842 0.0073759 0.0103935 0.0109963 0.0174003 0.0229317 0.0256697 0.0262352 0.0235948 0.017811 0.00941386 0.0104799 0.00871079 0.00722329 0.00860389 0.0106385 0.0128014 0.0141532 0.0140202 0.0145181 0.0142618 0.0135056 0.0125552 0.0114617 0.0104458 0.00971748 0.00884316 0.00807807 0.00741247 0.00675194 0.00599308 0.00514203 0.00449517 0.00590803 0.00843059 0.0108355 0.0172617 0.0216707 0.0268421 0.0287831 0.0245348 0.0196121 0.0107069 0.00811046 0.00637063 0.00658745 0.00846705 0.0103265 0.0118475 0.0131364 0.0137546 0.0146172 0.0148228 0.0141068 0.0131135 0.0118821 0.0107529 0.00999325 0.00910496 0.00838411 0.00780531 0.0073102 0.00682969 0.00632199 0.00587367 0.00620118 0.00787999 0.0104463 0.0159733 0.0192483 0.02485 0.0273878 0.0226614 0.0184342 0.0111459 0.00822063 0.00732655 0.00804175 0.00951234 0.0106599 0.0109703 0.0121325 0.0131085 0.0148653 0.0158455 0.0150884 0.0138647 0.0124011 0.0111044 0.0101928 0.00934782 0.00871461 0.00824337 0.0079041 0.00765632 0.00749931 0.00744968 0.00779614 0.00902065 0.010804 0.0145639 0.0178704 0.0213374 0.0228988 0.0198167 0.0160716 0.0113721 0.00966846 0.0091919 0.00975557 0.0108119 0.0108286 0.00971989 0.01068 0.0126291 0.0156365 0.0170918 0.0160047 0.0143886 0.0127116 0.0113058 0.0103284 0.00955319 0.00903467 0.00868057 0.00846953 0.00836301 0.00838863 0.00854177 0.00895229 0.00989696 0.0112586 0.0136703 0.0158787 0.0179169 0.0186898 0.0169086 0.0148053 0.0121292 0.0111676 0.0110576 0.0115193 0.0129476 0.0122174 0.00743837 0.00734242 0.0092883 0.0166321 0.020008 0.0180708 0.0152156 0.0130451 0.0114303 0.0103155 0.00968252 0.00931077 0.00908369 0.00898821 0.00898339 0.00911643 0.00936481 0.00981758 0.0105606 0.0115383 0.0130048 0.0144157 0.0155364 0.015975 0.0150449 0.0139111 0.012589 0.0122785 0.0125881 0.0136199 0.0151633 0.0121283 0.00726229 0.00745635 0.00787296 0.0149318 0.020403 0.0186551 0.0152029 0.0128884 0.0112841 0.0101192 0.00971656 0.00951983 0.00942495 0.00942582 0.00948271 0.00964904 0.00989245 0.010297 0.0108537 0.0115806 0.0124883 0.0133822 0.0140276 0.0143034 0.0138568 0.0133134 0.0126929 0.0126639 0.0129661 0.0136495 0.0144709 0.0119927 0.0111936 0.0119729 0.0120117 0.0149001 0.0181938 0.0149965 0.0132481 0.0119244 0.0107868 0.00981027 0.00971951 0.00970896 0.00973558 0.00981408 0.00991736 0.0100994 0.010325 0.0106705 0.0110855 0.0116132 0.0121851 0.012753 0.0131274 0.013308 0.0131082 0.0128743 0.0126735 0.0128643 0.0132765 0.0138118 0.0144307 0.0119734 0.0138174 0.0151832 0.0188266 0.0226412 0.01434 0.00626717 0.00892472 0.0099702 0.00994445 0.00978932 0.00984887 0.00993818 0.0100366 0.0101569 0.0102804 0.0104545 0.010647 0.0109237 0.011227 0.0116104 0.0119845 0.012362 0.012599 0.0127332 0.0126695 0.0126192 0.0126504 0.013021 0.0135796 0.0142687 0.0143744 0.0115054 0.0151434 0.0163563 0.0190789 0.0203193 0.0144395 0.00651349 0.00858284 0.0095682 0.00976537 0.0101227 0.0101508 0.0102397 0.0103491 0.0104754 0.0106006 0.0107603 0.0109262 0.0111488 0.0113754 0.0116527 0.0119019 0.0121514 0.0123015 0.0123958 0.0123827 0.0123967 0.0124835 0.0128051 0.0132369 0.0135441 0.0131611 0.0128526 0.0153561 0.0124363 0.0145803 0.0163587 0.0166412 0.0121387 0.0111507 0.0105572 0.0102563 0.0103825 0.0104415 0.0105401 0.0106485 0.0107667 0.0108819 0.0110203 0.0111599 0.0113359 0.0115073 0.0117083 0.0118803 0.0120493 0.0121513 0.012223 0.0122405 0.0122945 0.0124189 0.01274 0.0131826 0.0136662 0.0136776 0.0137181 0.0150137 0.0113965 0.014253 0.01731 0.0145603 0.0116567 0.0110821 0.0106131 0.0104328 0.0107317 0.010762 0.0108348 0.0109232 0.0110236 0.011126 0.0112458 0.0113666 0.0115089 0.0116434 0.0117894 0.0119089 0.0120183 0.0120822 0.0121268 0.0121433 0.0121925 0.0122961 0.0125392 0.0128904 0.013324 0.0136293 0.0138468 0.0149435 0.0134876 0.0137398 0.0141024 0.0133205 0.0120827 0.0114816 0.0110141 0.0108005 0.0110832 0.0110841 0.0111249 0.0111858 0.0112633 0.0113497 0.0114514 0.0115565 0.0116718 0.0117787 0.0118815 0.0119616 0.0120229 0.0120554 0.0120726 0.0120812 0.0121191 0.0122055 0.0123911 0.0126664 0.0130067 0.0133481 0.0134831 0.0141229 0.0132687 0.0135234 0.0137708 0.0129948 0.012226 0.0116998 0.0113428 0.0111539 0.0113608 0.0113403 0.011358 0.0114012 0.0114647 0.0115431 0.0116348 0.0117314 0.0118272 0.0119132 0.0119782 0.0120227 0.0120361 0.0120335 0.0120157 0.0120043 0.0120205 0.012083 0.0122194 0.0124366 0.012705 0.013041 0.013223 0.013672 0.0133513 0.0133409 0.013225 0.012741 0.0122779 0.0118768 0.0116058 0.0114384 
        </DataArray>
        <DataArray Name="vz" NumberOfComponents="1" type="Float32" format="ascii">
0 0 0 0 0 0 0 0 0 0 0 0 0 0 0 0 0 0 0 0 0 0 0 0 0 0 0 0 0 0 0 0 0 0 0 0 0 0 0 0 0 0 0 0 0 0 0 0 0 0 0 0 0 0 0 0 0 0 0 0 0 0 0 0 0 0 0 0 0 0 0 0 0 0 0 0 0 0 0 0 0 0 0 0 0 0 0 0 0 0 0 0 0 0 0 0 0 0 0 0 0 0 0 0 0 0 0 0 0 0 0 0 0 0 0 0 0 0 0 0 0 0 0 0 0 0 0 0 0 0 0 0 0 0 0 0 0 0 0 0 0 0 0 0 0 0 0 0 0 0 0 0 0 0 0 0 0 0 0 0 0 0 0 0 0 0 0 0 0 0 0 0 0 0 0 0 0 0 0 0 0 0 0 0 0 0 0 0 0 0 0 0 0 0 0 0 0 0 0 0 0 0 0 0 0 0 0 0 0 0 0 0 0 0 0 0 0 0 0 0 0 0 0 0 0 0 0 0 0 0 0 0 0 0 0 0 0 0 0 0 0 0 0 0 0 0 0 0 0 0 0 0 0 0 0 0 0 0 0 0 0 0 0 0 0 0 0 0 0 0 0 0 0 0 0 0 0 0 0 0 0 0 0 0 0 0 0 0 0 0 0 0 0 0 0 0 0 0 0 0 0 0 0 0 0 0 0 0 0 0 0 0 0 0 0 0 0 0 0 0 0 0 0 0 0 0 0 0 0 0 0 0 0 0 0 0 0 0 0 0 0 0 0 0 0 0 0 0 0 0 0 0 0 0 0 0 0 0 0 0 0 0 0 0 0 0 0 0 0 0 0 0 0 0 0 0 0 0 0 0 0 0 0 0 0 0 0 0 0 0 0 0 0 0 0 0 0 0 0 0 0 0 0 0 0 0 0 0 0 0 0 0 0 0 0 0 0 0 0 0 0 0 0 0 0 0 0 0 0 0 0 0 0 0 0 0 0 0 0 0 0 0 0 0 0 0 0 0 0 0 0 0 0 0 0 0 0 0 0 0 0 0 0 0 0 0 0 0 0 0 0 0 0 0 0 0 0 0 0 0 0 0 0 0 0 0 0 0 0 0 0 0 0 0 0 0 0 0 0 0 0 0 0 0 0 0 0 0 0 0 0 0 0 0 0 0 0 0 0 0 0 0 0 0 0 0 0 0 0 0 0 0 0 0 0 0 0 0 0 0 0 0 0 0 0 0 0 0 0 0 0 0 0 0 0 0 0 0 0 0 0 0 0 0 0 0 0 0 0 0 0 0 0 0 0 0 0 0 0 0 0 0 0 0 0 0 0 0 0 0 0 0 0 0 0 0 0 0 0 0 0 0 0 0 0 0 0 0 0 0 0 0 0 0 0 0 0 0 0 0 0 0 0 0 0 0 0 0 0 0 0 0 0 0 0 0 0 0 0 0 0 0 0 0 0 0 0 0 0 0 0 0 0 0 0 0 0 0 0 0 0 0 0 0 0 0 0 0 0 0 0 0 0 0 0 0 0 0 0 0 0 0 0 0 0 0 0 0 0 0 0 0 0 0 0 0 0 0 0 0 0 0 0 0 0 0 0 0 0 0 0 0 0 0 0 0 0 0 0 0 0 0 0 0 0 0 0 0 0 0 0 0 0 0 0 0 0 0 0 0 0 0 0 0 0 0 0 0 0 0 0 0 0 0 0 0 0 0 0 0 0 0 0 0 0 0 0 0 0 0 0 0 0 0 0 0 0 0 0 0 0 0 0 0 0 0 0 0 0 0 0 0 0 0 0 0 0 0 0 0 0 0 0 0 0 0 0 0 0 0 0 0 0 0 0 0 0 0 0 0 0 0 0 0 0 0 0 0 0 0 0 0 0 0 0 0 0 0 0 0 0 0 0 0 0 0 0 0 0 0 0 0 0 0 0 0 0 0 0 0 0 0 0 0 0 0 0 0 0 0 0 0 0 0 0 0 0 0 0 0 0 0 0 0 0 0 0 0 0 0 0 0 0 0 0 0 0 0 0 0 0 0 0 0 0 0 0 0 0 0 0 0 0 0 0 0 0 0 0 0 0 0 0 0 0 0 0 0 0 0 0 0 0 0 0 0 0 0 0 0 0 0 0 0 0 0 0 0 0 0 0 0 0 0 0 0 0 0 0 0 0 0 0 0 0 0 0 0 0 0 0 0 0 0 0 0 0 0 0 0 0 0 0 0 0 0 0 0 0 0 0 0 0 0 0 0 0 0 0 0 0 0 0 0 0 0 0 0 0 0 0 0 0 0 0 0 0 0 0 0 0 0 0 0 
        </DataArray>
        <DataArray Name="p" NumberOfComponents="1" type="Float32" format="ascii">