<?xml version="1.0"?>
<VTKFile type="StructuredGrid" version="0.1" byte_order="LittleEndian">
  <StructuredGrid WholeExtent="0 32 0 32 0 1">
    <Piece Extent="0 32 0 32 0 1">
      <PointData>
      </PointData>
      <CellData>
        <DataArray Name="vx" NumberOfComponents="1" type="Float32" format="ascii">
0.0209177 0.0207539 0.0206136 0.0204783 0.0203514 0.0202178 0.0200781 0.0199233 0.0197581 0.019583 0.019409 0.0192453 0.0191065 0.0190048 0.0189351 0.0189133 0.0189084 0.0189687 0.0190388 0.0192164 0.0193852 0.0196887 0.0199223 0.020248 0.0205741 0.0207759 0.0211211 0.0213393 0.0214217 0.02136 0.0212512 0.0210765 0.0206907 0.0205751 0.0204761 0.0203762 0.020276 0.0201616 0.0200333 0.0198849 0.0197204 0.0195446 0.0193707 0.0192121 0.0190935 0.0190285 0.0190116 0.0190511 0.0191067 0.019219 0.0193357 0.0195305 0.0197169 0.0199881 0.0202103 0.0204664 0.020702 0.0208375 0.021032 0.0211216 0.0211306 0.021046 0.0209434 0.020807 0.020462 0.0203856 0.0203202 0.0202476 0.0201659 0.0200633 0.0199392 0.0197921 0.0196231 0.0194438 0.0192691 0.0191188 0.0190357 0.019035 0.0191076 0.0192426 0.0193797 0.0195565 0.0197213 0.019934 0.020133 0.0203725 0.0205643 0.0207451 0.0208798 0.0209262 0.0209659 0.0209242 0.02086 0.0207463 0.0206489 0.0205421 0.0202328 0.0201889 0.0201518 0.0201008 0.0200317 0.019936 0.01981 0.0196607 0.0194768 0.0192833 0.0190904 0.0189309 0.0188894 0.0189814 0.0191981 0.0194866 0.0197486 0.0200178 0.020235 0.0204638 0.0206657 0.0208666 0.0210046 0.0210911 0.021099 0.0210254 0.0209209 0.0207605 0.0206213 0.0204697 0.0203702 0.0202827 0.019994 0.0199803 0.0199679 0.0199342 0.0198722 0.0197793 0.019644 0.0194835 0.0192611 0.0190223 0.0187749 0.018577 0.018587 0.0188369 0.0193049 0.0198497 0.0202923 0.0206771 0.0209354 0.0211455 0.0213184 0.0214505 0.0215134 0.0214846 0.0213474 0.0211386 0.0208737 0.020586 0.02037 0.0201798 0.0200819 0.0200135 0.019747 0.019768 0.0197835 0.0197708 0.0197187 0.0196334 0.0194841 0.0193001 0.0189858 0.0186385 0.0182433 0.0179134 0.0179686 0.0184448 0.0193272 0.0202894 0.021043 0.0216236 0.0219047 0.0220424 0.0221188 0.02211 0.0220465 0.0218549 0.0215422 0.0211931 0.0207603 0.020349 0.0200683 0.019851 0.0197689 0.0197288 0.0194929 0.0195633 0.0196174 0.0196355 0.0196004 0.0195256 0.0193426 0.0190845 0.018575 0.018017 0.0174286 0.0169552 0.01707 0.0178658 0.0193218 0.0208632 0.0220008 0.022876 0.0232333 0.0232009 0.0230821 0.0228035 0.0225555 0.022126 0.0215869 0.0210975 0.02046 0.0199343 0.0196223 0.01942 0.0193959 0.019415 0.0192486 0.0193857 0.0194946 0.019563 0.0195649 0.0195165 0.019292 0.0189411 0.0181845 0.017543 0.0169094 0.0163998 0.0166736 0.017731 0.0197158 0.0214523 0.0227904 0.0241191 0.0246465 0.0245473 0.0241647 0.0234283 0.0228719 0.0220568 0.0212783 0.0207545 0.0199271 0.019342 0.0190485 0.0189103 0.0189844 0.0190913 0.0190537 0.0192799 0.0194656 0.0196111 0.0196771 0.0196787 0.0194264 0.0190206 0.0182036 0.0180869 0.0185723 0.0187432 0.0189221 0.0198514 0.0216769 0.0227196 0.02277 0.0239479 0.0252989 0.0254749 0.0251166 0.0238458 0.0230166 0.021636 0.0204993 0.020077 0.0189886 0.0184137 0.0182636 0.0182936 0.018545 0.0187875 0.0189214 0.0192416 0.0195181 0.019765 0.0199425 0.0200672 0.0199777 0.0199288 0.0199282 0.0221151 0.0240532 0.0233249 0.0223366 0.0220058 0.0222819 0.0234726 0.0228503 0.021373 0.0226567 0.0246055 0.0251716 0.0235013 0.0224384 0.0201196 0.0190978 0.0195395 0.0180691 0.0175696 0.0175521 0.01776 0.0181792 0.0185519 0.0189659 0.0193603 0.0197263 0.0201006 0.0204459 0.0208141 0.0211088 0.0217534 0.0228871 0.0268117 0.0265718 0.0236167 0.0245117 0.0248968 0.0247526 0.024474 0.0255989 0.0226264 0.018393 0.0208486 0.0236195 0.022369 0.0221521 0.0188197 0.017874 0.0199115 0.0174186 0.0167486 0.0170503 0.0174742 0.0180605 0.0185286 0.0190372 0.0194857 0.019929 0.020413 0.0209363 0.0215371 0.0223876 0.0234671 0.0261032 0.0280113 0.0265731 0.0257902 0.0265028 0.0261626 0.0247512 0.0235408 0.0238074 0.0258721 0.0229932 0.020515 0.0222359 0.0206095 0.0211676 0.0189382 0.0162595 0.017954 0.0178636 0.017635 0.0174361 0.0175708 0.0181006 0.0185694 0.0194322 0.0198088 0.0202456 0.020802 0.0214608 0.0223238 0.023511 0.0247668 0.0267467 0.0248806 0.0240664 0.0266772 0.026755 0.0257268 0.0238245 0.0220506 0.0216344 0.0233221 0.0275722 0.0262525 0.0221425 0.0212217 0.0219306 0.0248347 0.022595 0.0192058 0.0181776 0.018025 0.0188557 0.0187486 0.0189225 0.0191381 0.0194837 0.0198918 0.0203382 0.0209172 0.0215556 0.022506 0.0233208 0.0245078 0.0224358 0.0204992 0.0238211 0.0260859 0.0257375 0.024372 0.0224129 0.0204268 0.0189222 0.0180436 0.0197888 0.0192992 0.0173652 0.0179858 0.0163202 0.0183919 0.0203957 0.0164153 0.00996548 0.0109073 0.0162713 0.0175396 0.0186046 0.0190727 0.0200233 0.0201919 0.0204932 0.0209886 0.0215798 0.0225262 0.0233021 0.0245488 0.0218996 0.0207874 0.0247076 0.0257153 0.0248176 0.0232465 0.0212855 0.0193362 0.0175327 0.0159859 0.0167085 0.0168265 0.0161486 0.0184186 0.0197083 0.0210309 0.0242774 0.0249857 0.0254346 0.0244338 0.0214958 0.0208948 0.0202747 0.0200697 0.0201031 0.0201863 0.0204002 0.0207849 0.0212958 0.0220667 0.0229412 0.0241149 0.0236858 0.0232157 0.0250316 0.0254624 0.0241241 0.0223941 0.0202427 0.0182408 0.0165089 0.0152674 0.0168716 0.0170717 0.0156111 0.0176654 0.0184314 0.0201898 0.0207061 0.0207626 0.0250737 0.0246726 0.0219036 0.0212135 0.0204954 0.0202393 0.0202315 0.0201728 0.0202476 0.0204495 0.0207831 0.0211861 0.0218802 0.0225302 0.0238756 0.02337 0.0233653 0.0243211 0.0231394 0.0215564 0.0190862 0.0170072 0.0152474 0.0148496 0.0144873 0.0135525 0.0142434 0.0162751 0.0170756 0.0182988 0.0185034 0.0186037 0.0218759 0.0226359 0.021946 0.0215532 0.0208689 0.0204994 0.0201662 0.0200248 0.0199981 0.0200398 0.0202195 0.0203013 0.0208848 0.0211338 0.0244626 0.0242996 0.0215834 0.0222546 0.021753 0.0207661 0.0183605 0.0165933 0.0155043 0.0164686 0.0143525 0.0130786 0.0158802 0.0173625 0.0180584 0.0184887 0.0193972 0.0204963 0.0224961 0.0227508 0.0221235 0.0215785 0.0208928 0.0204791 0.0200548 0.0198582 0.0197314 0.0196185 0.0195725 0.019351 0.0193944 0.0191897 0.0214 0.0229994 0.0210407 0.0191312 0.0191591 0.0199575 0.0186726 0.0183368 0.0195005 0.0198855 0.0175051 0.0170187 0.0187026 0.0193623 0.0197995 0.0203335 0.0212524 0.0219364 0.0226767 0.0224668 0.0219356 0.0213626 0.0207682 0.0203704 0.0198916 0.0196923 0.0195145 0.0193097 0.0191112 0.0187257 0.018374 0.0177567 0.0183253 0.0198589 0.0202752 0.0178643 0.0171987 0.0195108 0.0201988 0.0215859 0.0240517 0.02146 0.0186311 0.0203267 0.0207584 0.020831 0.0207906 0.0212111 0.0221013 0.0230136 0.0231184 0.0222656 0.0216887 0.0210158 0.0205061 0.0201629 0.0197414 0.0195829 0.0193855 0.0191226 0.0188127 0.0183365 0.0177585 0.0169226 0.0163826 0.0169156 0.0173061 0.0187782 0.0195224 0.0190391 0.0200364 0.020251 0.019034 0.0189737 0.0206356 0.0217809 0.0215422 0.0210638 0.0207843 0.0213054 0.02247 0.0239115 0.0232502 0.0215639 0.0210623 0.0204146 0.0201078 0.0199115 0.019598 0.0195258 0.0193599 0.0191003 0.0187632 0.0182963 0.0177044 0.016903 0.0159872 0.0155575 0.0151531 0.0165971 0.0180114 0.01836 0.0203701 0.0212753 0.0209734 0.0217574 0.0226867 0.0223376 0.0213566 0.0204047 0.0199334 0.0204763 0.0219026 0.0249317 0.0234671 0.0203057 0.020296 0.0197176 0.0196307 0.0196322 0.0196015 0.0196104 0.0194721 0.0192207 0.0188796 0.0184443 0.0179225 0.0172996 0.016549 0.0160175 0.0155412 0.0159889 0.016992 0.0179969 0.0201446 0.0216377 0.0221688 0.0223887 0.0221273 0.0213163 0.0203075 0.0191537 0.0190146 0.0192807 0.0187788 0.0207832 0.018928 0.0166022 0.0184712 0.0187745 0.0191874 0.019487 0.0196109 0.019715 0.0196291 0.0194168 0.0191094 0.0187259 0.0182861 0.0178119 0.0172727 0.0168712 0.0165366 0.0167621 0.0174436 0.0182142 0.019709 0.020758 0.0211723 0.0212255 0.02091 0.0201223 0.0192827 0.0178932 0.0166546 0.0163969 0.0152667 0.0124066 0.0126803 0.0142198 0.0155903 0.0178715 0.0186906 0.019364 0.0199846 0.0200558 0.0199426 0.0197162 0.0194155 0.0190618 0.018681 0.0183027 0.0179156 0.0176324 0.0174239 0.0175007 0.0178999 0.0184047 0.0192878 0.0199209 0.0202082 0.0201956 0.0199522 0.0193082 0.0188342 0.0171713 0.0168547 0.0173389 0.0157901 0.0122375 0.0117929 0.0135272 0.014768 0.0176598 0.0189305 0.0197255 0.0202727 0.0202872 0.0201759 0.0199632 0.0196954 0.0193845 0.0190589 0.0187415 0.0184366 0.0182082 0.0180482 0.0180499 0.0182417 0.0184898 0.0189385 0.0192484 0.0193976 0.0193862 0.0192683 0.0190055 0.018855 0.0188963 0.0192458 0.0184545 0.0172383 0.0154756 0.0148172 0.0172555 0.0182584 0.0187729 0.0196502 0.0200784 0.021049 0.0208063 0.0205602 0.0202757 0.0199882 0.0196873 0.0193922 0.0191113 0.0188516 0.0186459 0.0184953 0.0184359 0.0184917 0.0185867 0.0187881 0.0189344 0.0190077 0.0190473 0.0190342 0.0191291 0.0192394 0.0199714 0.0205579 0.0197499 0.0206736 0.021404 0.022466 0.0236089 0.0223882 0.0219134 0.0214712 0.0212319 0.0211927 0.020925 0.0206898 0.0204252 0.0201693 0.0199051 0.0196492 0.0194017 0.0191713 0.0189735 0.0188138 0.0187067 0.018666 0.0186511 0.018692 0.0187169 0.018713 0.0187419 0.0187667 0.0190247 0.0192677 0.0201556 0.02054 0.019928 0.021491 0.0227699 0.0241828 0.025279 0.0236061 0.0224355 0.0218017 0.0213992 0.0214515 0.0211306 0.0208543 0.0205742 0.0203217 0.0200748 0.0198431 0.019619 0.0194088 0.0192172 0.01905 0.0189134 0.0188163 0.0187408 0.0186971 0.0186632 0.0186181 0.0186364 0.0186469 0.0188796 0.0189944 0.019376 0.0189655 0.0182993 0.0179678 0.0189807 0.0211089 0.0221368 0.0223621 0.02218 0.0220073 0.0216999 0.0213998 0.0211004 0.0208506 0.0206056 0.0203872 0.0201738 0.0199717 0.019771 0.0195772 0.0193902 0.0192165 0.0190601 0.0189274 0.0188144 0.0187222 0.0186534 0.0185857 0.0185946 0.0186095 0.0188446 0.0190058 0.0194131 0.0191949 0.0191133 0.0186222 0.0184534 0.0204401 0.0219739 0.0222975 0.0221619 0.0219782 0.0216575 0.0213199 0.0210519 0.0208247 0.0206079 0.0204156 0.0202286 0.0200495 0.0198674 0.0196866 0.0195052 0.0193301 0.0191658 0.0190189 0.0188937 0.0187874 0.0187138 0.0186478 0.0186568 0.0186712 0.0188634 0.0190146 0.0193896 0.0194529 0.0197573 0.0199505 0.0200188 0.0209321 0.0216696 0.0219518 0.0219253 0.0218168 0.0215572 0.0211292 0.020913 0.0207303 0.0205568 0.0203998 0.0202423 0.0200856 0.0199193 0.0197479 0.01957 0.0193941 0.0192266 0.019077 0.0189546 0.0188554 0.0187972 0.0187534 0.0187817 0.0188202 0.0190018 0.0191635 0.0195137 0.0197018 0.0200481 0.0203612 0.0205095 0.0211212 0.0215893 0.0217457 0.0216915 0.0215616 0.0213341 
        </DataArray>
        <DataArray Name="vy" NumberOfComponents="1" type="Float32" format="ascii">
0.0116934 0.0116085 0.011566 0.0115642 0.0115965 0.0116583 0.0117454 0.0118472 0.0119566 0.0120556 0.0121378 0.0121867 0.0122031 0.0121897 0.0121593 0.0121249 0.0121052 0.0121159 0.0121717 0.0123036 0.012459 0.0127196 0.0128796 0.0132035 0.013227 0.0133834 0.0133309 0.01306 0.012676 0.0123508 0.0120469 0.0118441 0.0118372 0.0117374 0.0116842 0.0116772 0.0117124 0.0117834 0.0118847 0.0120004 0.012123 0.0122243 0.0123017 0.0123273 0.0123096 0.0122542 0.0121824 0.0121119 0.0120569 0.0120262 0.01204 0.0121185 0.0122393 0.0124591 0.0126377 0.0129182 0.0130175 0.0131386 0.0131028 0.0129445 0.0126905 0.0124397 0.0121883 0.0119921 0.0119337 0.0118242 0.0117682 0.0117652 0.0118124 0.0119004 0.0120236 0.0121578 0.0123 0.012402 0.0124747 0.0124618 0.0123911 0.0122702 0.0121407 0.0120284 0.0119424 0.0118803 0.0118687 0.0119097 0.0120141 0.0122113 0.0124152 0.0126949 0.0128685 0.0130217 0.0130527 0.012949 0.0127597 0.0125323 0.0122986 0.0120959 0.0119947 0.011876 0.0118221 0.0118302 0.0118974 0.0120081 0.0121584 0.0123117 0.0124756 0.0125709 0.0126306 0.0125544 0.0123987 0.012178 0.0119797 0.0118364 0.011748 0.011676 0.0116698 0.0116953 0.0118097 0.0120174 0.012273 0.0125965 0.0128478 0.0130449 0.0131229 0.0130462 0.0128793 0.0126425 0.0123972 0.0121722 0.0120305 0.0119041 0.0118575 0.0118839 0.0119787 0.0121179 0.0123031 0.0124824 0.0126857 0.0127776 0.0128369 0.0126545 0.0123488 0.0119542 0.0116432 0.011483 0.0114199 0.0113941 0.0114342 0.0114723 0.0116204 0.0118679 0.0121918 0.012599 0.0129286 0.013193 0.0133172 0.013239 0.0130556 0.0127756 0.0124912 0.0122297 0.0120307 0.0119007 0.0118701 0.0119247 0.0120567 0.0122322 0.0124636 0.0126837 0.0129491 0.0130408 0.0130829 0.0127356 0.0121592 0.0114554 0.0109805 0.0108401 0.0109228 0.0110083 0.0112017 0.0112919 0.0115016 0.0118201 0.0122274 0.0127815 0.0131821 0.0135371 0.0136791 0.0135516 0.0132949 0.0129259 0.01257 0.0122564 0.0119942 0.0118652 0.0118561 0.0119446 0.0121189 0.0123418 0.0126455 0.0129602 0.0133662 0.0134972 0.013577 0.0129037 0.011814 0.0105548 0.00980841 0.00980797 0.0100944 0.0105617 0.0110362 0.0112627 0.0115621 0.0119591 0.0124182 0.0131395 0.0135293 0.0140054 0.0141373 0.0139305 0.0135555 0.013067 0.0126187 0.0122468 0.0118857 0.0117739 0.0118022 0.0119403 0.0121772 0.0124837 0.0129258 0.0134299 0.0140366 0.0141562 0.0141224 0.0131339 0.0113373 0.00922561 0.00801829 0.00812237 0.00891002 0.0096863 0.0108649 0.0113924 0.0118686 0.0123662 0.0128406 0.0138557 0.0141316 0.014759 0.0148105 0.0144025 0.0138101 0.0131429 0.0125803 0.0121529 0.0117072 0.0116174 0.0116813 0.0118675 0.0121695 0.0125966 0.0132383 0.0140394 0.0148094 0.0147647 0.0147479 0.013047 0.0103691 0.00724984 0.00616811 0.0069598 0.00735549 0.00886992 0.0106189 0.0117679 0.012694 0.0133263 0.0136691 0.0148759 0.0145674 0.0155279 0.0154584 0.0148535 0.0139959 0.0131346 0.0124538 0.0119815 0.0113906 0.0113554 0.011476 0.0117279 0.0121272 0.0127264 0.0136175 0.014605 0.0149734 0.0136726 0.0131421 0.013139 0.0107269 0.00667773 0.00508734 0.00681337 0.00781781 0.00678853 0.00934844 0.011468 0.0134318 0.0145656 0.0148807 0.0167739 0.0153881 0.0166018 0.0162991 0.0151246 0.0138791 0.0128162 0.0120732 0.0116212 0.0110425 0.0110263 0.0111637 0.0114369 0.0118697 0.0125452 0.0134043 0.0141018 0.0127675 0.0109645 0.0138603 0.0145572 0.010991 0.00681665 0.00474614 0.0062089 0.00966328 0.00966305 0.0072422 0.00916896 0.0138155 0.0161438 0.0166289 0.0186152 0.0142026 0.0172605 0.0172353 0.0155934 0.0139048 0.0125714 0.0117309 0.0112617 0.0105314 0.0105745 0.0107344 0.0110071 0.011433 0.0120557 0.0127202 0.0126944 0.0099694 0.00902148 0.0166016 0.0150956 0.010094 0.00689364 0.00550505 0.00609676 0.00914652 0.0138019 0.0114519 0.00634849 0.0119734 0.0164486 0.0183125 0.0223257 0.0132457 0.0180899 0.0186996 0.0151652 0.0129032 0.0116076 0.0109328 0.0106403 0.0101956 0.0101603 0.0102503 0.0104283 0.0107396 0.0110813 0.0114746 0.0104118 0.00840901 0.0106729 0.0166917 0.0139765 0.0104248 0.00838559 0.00733674 0.00704752 0.00765767 0.0102938 0.0124842 0.00916631 0.013931 0.0168657 0.0171996 0.023768 0.014617 0.0160886 0.0175682 0.0168183 0.0145527 0.012148 0.0109645 0.0104116 0.0097856 0.00971682 0.00972512 0.00978964 0.00992209 0.0100441 0.0102809 0.00968469 0.00954938 0.0116437 0.014491 0.0126884 0.0110819 0.00996072 0.00920644 0.00841185 0.00790037 0.00793667 0.00931198 0.0121319 0.0166334 0.0175427 0.0161843 0.0207036 0.0194415 0.0220817 0.0208974 0.0125344 0.011549 0.0110029 0.0103055 0.00996524 0.00948952 0.00935165 0.00925124 0.00920451 0.00916024 0.00923275 0.00952061 0.0109388 0.0126351 0.00949374 0.0110994 0.012109 0.0121006 0.0117061 0.01122 0.0104843 0.00982236 0.00928891 0.0100764 0.0120634 0.0151496 0.0163296 0.0167351 0.0181989 0.0179096 0.0253051 0.0235944 0.011157 0.00975988 0.0102293 0.0098793 0.00969042 0.00955813 0.00919518 0.00890216 0.00867808 0.00839551 0.0082581 0.00836 0.0108255 0.0137734 0.00847223 0.00957891 0.0126157 0.0135428 0.0135302 0.0131176 0.0122665 0.0112814 0.00929967 0.00837893 0.0132003 0.0150596 0.0147324 0.0149278 0.0162909 0.0154522 0.0217076 0.0209157 0.0158385 0.0134285 0.0118148 0.0107371 0.0100556 0.00959644 0.00909661 0.00867136 0.00832278 0.00789596 0.00759668 0.00754264 0.0101922 0.0138908 0.00800631 0.00866115 0.0130445 0.0151039 0.0156279 0.0153417 0.0142802 0.0126379 0.00913544 0.00764898 0.0138268 0.0143266 0.0132346 0.0133015 0.0155514 0.0174017 0.0205724 0.0193593 0.0154792 0.0135514 0.012022 0.0110012 0.0102179 0.00982537 0.00915725 0.00859803 0.0081298 0.00761852 0.00713179 0.00689857 0.00866444 0.0126391 0.00947456 0.00845671 0.0131658 0.0162211 0.0176023 0.0175867 0.0160842 0.0134176 0.0100909 0.00983321 0.0132327 0.0123337 0.0120095 0.0129133 0.0149967 0.0160264 0.0175806 0.0174766 0.0156486 0.0142815 0.0128038 0.0116419 0.0106433 0.010065 0.00929314 0.00866171 0.00813527 0.00762827 0.00704317 0.00665096 0.00708923 0.0102933 0.0111731 0.0102231 0.0130176 0.016493 0.0191753 0.0195284 0.0171968 0.012706 0.00940216 0.0117853 0.0120305 0.0104788 0.010983 0.0122243 0.0141709 0.015598 0.0167867 0.0171638 0.015869 0.0147756 0.0133632 0.0121278 0.0110059 0.0103101 0.00947645 0.00881764 0.00829229 0.00784596 0.00734162 0.00694605 0.00678727 0.00858958 0.0101976 0.0123041 0.0154433 0.015147 0.0179068 0.0188452 0.015146 0.0118365 0.0129199 0.0131224 0.0112792 0.00991083 0.0107458 0.0119661 0.0135204 0.0147423 0.0159639 0.0171959 0.0163159 0.0153879 0.0139532 0.0125909 0.0113492 0.0105424 0.00969061 0.00904755 0.00856353 0.00820271 0.00784041 0.00756034 0.00726387 0.00800087 0.00915547 0.0118804 0.0159149 0.0147516 0.0169565 0.0177119 0.0143379 0.01238 0.0144972 0.0120997 0.0102681 0.00998085 0.0109602 0.01179 0.0128688 0.0138748 0.0154789 0.0181407 0.0170896 0.016096 0.0145358 0.0129955 0.0116466 0.010619 0.00982678 0.0092617 0.0088652 0.00861018 0.00841326 0.00831834 0.00821791 0.00858875 0.00933328 0.0108453 0.0134626 0.0147678 0.0167862 0.0171576 0.0153123 0.0130925 0.0119346 0.0107787 0.0104588 0.0107172 0.0116152 0.0117066 0.0119295 0.01219 0.0149982 0.0198393 0.0182214 0.0167048 0.0148441 0.0130993 0.0117045 0.010666 0.00995509 0.00948381 0.00917813 0.00900885 0.00892051 0.00893816 0.0090029 0.00931005 0.00990709 0.010884 0.0126389 0.013416 0.0147193 0.0150937 0.0138128 0.0125647 0.0120041 0.0114089 0.0114748 0.0117765 0.0123994 0.0110239 0.0114683 0.00943323 0.0136296 0.0237298 0.0194245 0.0168997 0.0151121 0.0131226 0.0117086 0.010461 0.00993923 0.0096285 0.00944752 0.00937342 0.00936883 0.00945172 0.00959854 0.00987545 0.0103379 0.0109496 0.0119837 0.0126771 0.0134401 0.0136758 0.0130201 0.0123862 0.0119918 0.0119749 0.0123891 0.0129173 0.0134232 0.0116424 0.012257 0.0104049 0.0142245 0.0246766 0.0177799 0.0151885 0.0140011 0.012425 0.0112659 0.0103386 0.00997982 0.00980196 0.00971728 0.00971059 0.00975219 0.00985535 0.0100155 0.0102525 0.0106119 0.0110222 0.0116496 0.012052 0.0124773 0.0126581 0.0123613 0.0121977 0.0121514 0.01248 0.0130605 0.0140389 0.0147443 0.0122821 0.012641 0.0135833 0.0162339 0.0219115 0.0166394 0.0133394 0.0121527 0.0116469 0.010866 0.0100668 0.00994999 0.00993432 0.00995497 0.0100141 0.0100932 0.010207 0.0103573 0.0105512 0.0108178 0.0111012 0.0114861 0.0117683 0.0120219 0.0121694 0.0120701 0.0121144 0.0122482 0.0128088 0.0135022 0.0147703 0.015215 0.012171 0.0132727 0.0156483 0.0191299 0.0222691 0.0148874 0.011165 0.0097937 0.0102941 0.0101867 0.0101363 0.0101032 0.0101494 0.0102166 0.0103033 0.0103954 0.0105056 0.0106358 0.0107917 0.0109886 0.0111916 0.0114386 0.0116281 0.011789 0.0119132 0.0119157 0.0120628 0.0122895 0.0128916 0.0135495 0.0144998 0.0144856 0.0127754 0.0141533 0.0163666 0.0192084 0.0204201 0.013612 0.0115345 0.00995019 0.0102195 0.0101814 0.0104864 0.0104148 0.0104421 0.0105065 0.0105902 0.0106786 0.0107794 0.010891 0.0110187 0.011167 0.0113177 0.0114832 0.0116195 0.0117268 0.0118228 0.0118576 0.0120016 0.0122173 0.0126946 0.013215 0.0137264 0.0135499 0.0125817 0.0131951 0.0138368 0.0176208 0.018552 0.0152742 0.0132949 0.01168 0.0111164 0.0106971 0.0106483 0.0106336 0.0106805 0.0107544 0.0108375 0.0109222 0.0110152 0.0111139 0.0112237 0.0113423 0.0114619 0.011582 0.0116849 0.0117644 0.0118433 0.0118951 0.0120313 0.012233 0.0126251 0.0130816 0.0134848 0.0134562 0.0130491 0.0133109 0.0128973 0.0168236 0.0176297 0.0153612 0.0131073 0.0118049 0.011137 0.0108047 0.0110288 0.010974 0.0109787 0.0110204 0.0110799 0.0111495 0.0112318 0.0113214 0.0114206 0.0115228 0.0116233 0.011716 0.0117941 0.0118504 0.0119043 0.0119439 0.0120382 0.0121876 0.0124621 0.0128347 0.0132011 0.0134775 0.0135382 0.0141065 0.0136335 0.0147902 0.0151491 0.0142221 0.0129859 0.0121641 0.0115554 0.0112213 0.0112491 0.011202 0.011199 0.0112291 0.0112784 0.0113422 0.0114212 0.0115094 0.0116061 0.0117022 0.0117931 0.01187 0.01193 0.0119688 0.0120014 0.0120266 0.0120876 0.0121944 0.0123835 0.0126673 0.012952 0.0132789 0.0133896 0.0138898 0.0136557 0.0142661 0.014393 0.0136827 0.0127824 0.0121622 0.0116623 0.0114046 0.0115186 0.0114436 0.0114121 0.0114189 0.0114538 0.0115119 0.0115907 0.0116824 0.0117822 0.0118779 0.0119631 0.012027 0.0120674 0.0120838 0.0120878 0.012086 0.0121054 0.0121615 0.0122747 0.0124766 0.0126941 0.0130122 0.0131798 0.0135865 0.013508 0.0137188 0.0136169 0.0132452 0.0127013 0.0122863 0.0119051 0.0116778 
        </DataArray>
        <DataArray Name="vz" NumberOfComponents="1" type="Float32" format="ascii">
0 0 0 0 0 0 0 0 0 0 0 0 0 0 0 0 0 0 0 0 0 0 0 0 0 0 0 0 0 0 0 0 0 0 0 0 0 0 0 0 0 0 0 0 0 0 0 0 0 0 0 0 0 0 0 0 0 0 0 0 0 0 0 0 0 0 0 0 0 0 0 0 0 0 0 0 0 0 0 0 0 0 0 0 0 0 0 0 0 0 0 0 0 0 0 0 0 0 0 0 0 0 0 0 0 0 0 0 0 0 0 0 0 0 0 0 0 0 0 0 0 0 0 0 0 0 0 0 0 0 0 0 0 0 0 0 0 0 0 0 0 0 0 0 0 0 0 0 0 0 0 0 0 0 0 0 0 0 0 0 0 0 0 0 0 0 0 0 0 0 0 0 0 0 0 0 0 0 0 0 0 0 0 0 0 0 0 0 0 0 0 0 0 0 0 0 0 0 0 0 0 0 0 0 0 0 0 0 0 0 0 0 0 0 0 0 0 0 0 0 0 0 0 0 0 0 0 0 0 0 0 0 0 0 0 0 0 0 0 0 0 0 0 0 0 0 0 0 0 0 0 0 0 0 0 0 0 0 0 0 0 0 0 0 0 0 0 0 0 0 0 0 0 0 0 0 0 0 0 0 0 0 0 0 0 0 0 0 0 0 0 0 0 0 0 0 0 0 0 0 0 0 0 0 0 0 0 0 0 0 0 0 0 0 0 0 0 0 0 0 0 0 0 0 0 0 0 0 0 0 0 0 0 0 0 0 0 0 0 0 0 0 0 0 0 0 0 0 0 0 0 0 0 0 0 0 0 0 0 0 0 0 0 0 0 0 0 0 0 0 0 0 0 0 0 0 0 0 0 0 0 0 0 0 0 0 0 0 0 0 0 0 0 0 0 0 0 0 0 0 0 0 0 0 0 0 0 0 0 0 0 0 0 0 0 0 0 0 0 0 0 0 0 0 0 0 0 0 0 0 0 0 0 0 0 0 0 0 0 0 0 0 0 0 0 0 0 0 0 0 0 0 0 0 0 0 0 0 0 0 0 0 0 0 0 0 0 0 0 0 0 0 0 0 0 0 0 0 0 0 0 0 0 0 0 0 0 0 0 0 0 0 0 0 0 0 0 0 0 0 0 0 0 0 0 0 0 0 0 0 0 0 0 0 0 0 0 0 0 0 0 0 0 0 0 0 0 0 0 0 0 0 0 0 0 0 0 0 0 0 0 0 0 0 0 0 0 0 0 0 0 0 0 0 0 0 0 0 0 0 0 0 0 0 0 0 0 0 0 0 0 0 0 0 0 0 0 0 0 0 0 0 0 0 0 0 0 0 0 0 0 0 0 0 0 0 0 0 0 0 0 0 0 0 0 0 0 0 0 0 0 0 0 0 0 0 0 0 0 0 0 0 0 0 0 0 0 0 0 0 0 0 0 0 0 0 0 0 0 0 0 0 0 0 0 0 0 0 0 0 0 0 0 0 0 0 0 0 0 0 0 0 0 0 0 0 0 0 0 0 0 0 0 0 0 0 0 0 0 0 0 0 0 0 0 0 0 0 0 0 0 0 0 0 0 0 0 0 0 0 0 0 0 0 0 0 0 0 0 0 0 0 0 0 0 0 0 0 0 0 0 0 0 0 0 0 0 0 0 0 0 0 0 0 0 0 0 0 0 0 0 0 0 0 0 0 0 0 0 0 0 0 0 0 0 0 0 0 0 0 0 0 0 0 0 0 0 0 0 0 0 0 0 0 0 0 0 0 0 0 0 0 0 0 0 0 0 0 0 0 0 0 0 0 0 0 0 0 0 0 0 0 0 0 0 0 0 0 0 0 0 0 0 0 0 0 0 0 0 0 0 0 0 0 0 0 0 0 0 0 0 0 0 0 0 0 0 0 0 0 0 0 0 0 0 0 0 0 0 0 0 0 0 0 0 0 0 0 0 0 0 0 0 0 0 0 0 0 0 0 0 0 0 0 0 0 0 0 0 0 0 0 0 0 0 0 0 0 0 0 0 0 0 0 0 0 0 0 0 0 0 0 0 0 0 0 0 0 0 0 0 0 0 0 0 0 0 0 0 0 0 0 0 0 0 0 0 0 0 0 0 0 0 0 0 0 0 0 0 0 0 0 0 0 0 0 0 0 0 0 0 0 0 0 0 0 0 0 0 0 0 0 0 0 0 0 0 0 0 0 0 0 0 0 0 0 0 0 0 0 0 0 0 0 0 0 0 0 0 0 0 0 0 0 0 0 0 0 0 0 0 0 0 0 0 0 0 0 0 0 0 0 0 0 0 0 0 0 0 0 0 0 0 0 
        </DataArray>
        <DataArray Name="p" NumberOfComponents="1" type="Float32" format="ascii">